ITEM: TIMESTEP
0
ITEM: NUMBER OF ATOMS
25
ITEM: ATOMS id type x y z radius
  1  3      0.00000000e+00     -2.50000000e-04     -5.00000000e-04      2.50000000e-04
  2  3     -2.50000000e-04      0.00000000e+00     -5.00000000e-04      2.50000000e-04
  3  3      0.00000000e+00      0.00000000e+00     -5.00000000e-04      2.50000000e-04
  4  3      2.50000000e-04      0.00000000e+00     -5.00000000e-04      2.50000000e-04
  5  3      0.00000000e+00      2.50000000e-04     -5.00000000e-04      2.50000000e-04
  6  3      0.00000000e+00     -2.50000000e-04     -2.50000000e-04      2.50000000e-04
  7  3     -2.50000000e-04      0.00000000e+00     -2.50000000e-04      2.50000000e-04
  8  3      0.00000000e+00      0.00000000e+00     -2.50000000e-04      2.50000000e-04
  9  3      2.50000000e-04      0.00000000e+00     -2.50000000e-04      2.50000000e-04
 10  3      0.00000000e+00      2.50000000e-04     -2.50000000e-04      2.50000000e-04
 11  3      0.00000000e+00     -2.50000000e-04      0.00000000e+00      2.50000000e-04
 12  3     -2.50000000e-04      0.00000000e+00      0.00000000e+00      2.50000000e-04
 13  3      0.00000000e+00      0.00000000e+00      0.00000000e+00      2.50000000e-04
 14  3      2.50000000e-04      0.00000000e+00      0.00000000e+00      2.50000000e-04
 15  3      0.00000000e+00      2.50000000e-04      0.00000000e+00      2.50000000e-04
 16  3      0.00000000e+00     -2.50000000e-04      2.50000000e-04      2.50000000e-04
 17  3     -2.50000000e-04      0.00000000e+00      2.50000000e-04      2.50000000e-04
 18  3      0.00000000e+00      0.00000000e+00      2.50000000e-04      2.50000000e-04
 19  3      2.50000000e-04      0.00000000e+00      2.50000000e-04      2.50000000e-04
 20  3      0.00000000e+00      2.50000000e-04      2.50000000e-04      2.50000000e-04
 21  3      0.00000000e+00     -2.50000000e-04      5.00000000e-04      2.50000000e-04
 22  3     -2.50000000e-04      0.00000000e+00      5.00000000e-04      2.50000000e-04
 23  3      0.00000000e+00      0.00000000e+00      5.00000000e-04      2.50000000e-04
 24  3      2.50000000e-04      0.00000000e+00      5.00000000e-04      2.50000000e-04
 25  3      0.00000000e+00      2.50000000e-04      5.00000000e-04      2.50000000e-04
