ITEM: TIMESTEP
0
ITEM: NUMBER OF ATOMS
7
ITEM: ATOMS id type x y z radius
  1  4      0.00000000e+00      0.00000000e+00      0.00000000e+00      2.50000000e-04
  2  4     -5.00000000e-04      0.00000000e+00      0.00000000e+00      2.50000000e-04
  3  4      5.00000000e-04      0.00000000e+00      0.00000000e+00      2.50000000e-04
  4  4      0.00000000e+00     -5.00000000e-04      0.00000000e+00      2.50000000e-04
  5  4      0.00000000e+00      5.00000000e-04      0.00000000e+00      2.50000000e-04
  6  4      0.00000000e+00      0.00000000e+00     -5.00000000e-04      2.50000000e-04
  7  4      0.00000000e+00      0.00000000e+00      5.00000000e-04      2.50000000e-04
