ITEM: TIMESTEP
0
ITEM: NUMBER OF ATOMS
25
ITEM: ATOMS id type x y z radius
  1  2     -5.00000000e-04     -5.00000000e-04      0.00000000e+00      2.50000000e-04
  2  2     -2.50000000e-04     -5.00000000e-04      0.00000000e+00      2.50000000e-04
  3  2      0.00000000e+00     -5.00000000e-04      0.00000000e+00      2.50000000e-04
  4  2      2.50000000e-04     -5.00000000e-04      0.00000000e+00      2.50000000e-04
  5  2      5.00000000e-04     -5.00000000e-04      0.00000000e+00      2.50000000e-04
  6  2     -5.00000000e-04     -2.50000000e-04      0.00000000e+00      2.50000000e-04
  7  2     -2.50000000e-04     -2.50000000e-04      0.00000000e+00      2.50000000e-04
  8  2      0.00000000e+00     -2.50000000e-04      0.00000000e+00      2.50000000e-04
  9  2      2.50000000e-04     -2.50000000e-04      0.00000000e+00      2.50000000e-04
 10  2      5.00000000e-04     -2.50000000e-04      0.00000000e+00      2.50000000e-04
 11  2     -5.00000000e-04      0.00000000e+00      0.00000000e+00      2.50000000e-04
 12  2     -2.50000000e-04      0.00000000e+00      0.00000000e+00      2.50000000e-04
 13  2      0.00000000e+00      0.00000000e+00      0.00000000e+00      2.50000000e-04
 14  2      2.50000000e-04      0.00000000e+00      0.00000000e+00      2.50000000e-04
 15  2      5.00000000e-04      0.00000000e+00      0.00000000e+00      2.50000000e-04
 16  2     -5.00000000e-04      2.50000000e-04      0.00000000e+00      2.50000000e-04
 17  2     -2.50000000e-04      2.50000000e-04      0.00000000e+00      2.50000000e-04
 18  2      0.00000000e+00      2.50000000e-04      0.00000000e+00      2.50000000e-04
 19  2      2.50000000e-04      2.50000000e-04      0.00000000e+00      2.50000000e-04
 20  2      5.00000000e-04      2.50000000e-04      0.00000000e+00      2.50000000e-04
 21  2     -5.00000000e-04      5.00000000e-04      0.00000000e+00      2.50000000e-04
 22  2     -2.50000000e-04      5.00000000e-04      0.00000000e+00      2.50000000e-04
 23  2      0.00000000e+00      5.00000000e-04      0.00000000e+00      2.50000000e-04
 24  2      2.50000000e-04      5.00000000e-04      0.00000000e+00      2.50000000e-04
 25  2      5.00000000e-04      5.00000000e-04      0.00000000e+00      2.50000000e-04
