ITEM: TIMESTEP
0
ITEM: NUMBER OF ATOMS
7
ITEM: ATOMS id type x y z radius
  1  1      0.00000000e+00     -7.50000000e-04      0.00000000e+00      2.50000000e-04
  2  1      0.00000000e+00     -5.00000000e-04      0.00000000e+00      2.50000000e-04
  3  1      0.00000000e+00     -2.50000000e-04      0.00000000e+00      2.50000000e-04
  4  1      0.00000000e+00      0.00000000e+00      0.00000000e+00      2.50000000e-04
  5  1      0.00000000e+00      2.50000000e-04      0.00000000e+00      2.50000000e-04
  6  1      0.00000000e+00      5.00000000e-04      0.00000000e+00      2.50000000e-04
  7  1      0.00000000e+00      7.50000000e-04      0.00000000e+00      2.50000000e-04
