ITEM: TIMESTEP
0
ITEM: NUMBER OF ATOMS
8
ITEM: ATOMS id type x y z radius
  1  3     -2.50000000e-04      2.50000000e-04     -2.50000000e-04      2.50000000e-04
  2  3      2.50000000e-04      2.50000000e-04     -2.50000000e-04      2.50000000e-04
  3  3     -2.50000000e-04     -2.50000000e-04     -2.50000000e-04      2.50000000e-04
  4  3      2.50000000e-04     -2.50000000e-04     -2.50000000e-04      2.50000000e-04
  5  3     -2.50000000e-04      2.50000000e-04      2.50000000e-04      2.50000000e-04
  6  3      2.50000000e-04      2.50000000e-04      2.50000000e-04      2.50000000e-04
  7  3     -2.50000000e-04     -2.50000000e-04      2.50000000e-04      2.50000000e-04
  8  3      2.50000000e-04     -2.50000000e-04      2.50000000e-04      2.50000000e-04
