ITEM: TIMESTEP
0
ITEM: NUMBER OF ATOMS
6
ITEM: ATOMS id type x y z radius
  1  2     -2.50000000e-04     -5.00000000e-04      0.00000000e+00      2.50000000e-04
  2  2     -2.50000000e-04      5.00000000e-04      0.00000000e+00      2.50000000e-04
  3  2     -2.50000000e-04      0.00000000e+00      0.00000000e+00      2.50000000e-04
  4  2      2.50000000e-04      0.00000000e+00      0.00000000e+00      2.50000000e-04
  5  2      2.50000000e-04      5.00000000e-04      0.00000000e+00      2.50000000e-04
  6  2      2.50000000e-04     -5.00000000e-04      0.00000000e+00      2.50000000e-04
