ITEM: TIMESTEP
0
ITEM: NUMBER OF ATOMS
3481
ITEM: ATOMS id type x y z radius
  1  2     -7.25000000e-04     -7.25000000e-04      0.00000000e+00      2.50000000e-04
  2  2     -7.00000000e-04     -7.25000000e-04      0.00000000e+00      2.50000000e-04
  3  2     -6.75000000e-04     -7.25000000e-04      0.00000000e+00      2.50000000e-04
  4  2     -6.50000000e-04     -7.25000000e-04      0.00000000e+00      2.50000000e-04
  5  2     -6.25000000e-04     -7.25000000e-04      0.00000000e+00      2.50000000e-04
  6  2     -6.00000000e-04     -7.25000000e-04      0.00000000e+00      2.50000000e-04
  7  2     -5.75000000e-04     -7.25000000e-04      0.00000000e+00      2.50000000e-04
  8  2     -5.50000000e-04     -7.25000000e-04      0.00000000e+00      2.50000000e-04
  9  2     -5.25000000e-04     -7.25000000e-04      0.00000000e+00      2.50000000e-04
 10  2     -5.00000000e-04     -7.25000000e-04      0.00000000e+00      2.50000000e-04
 11  2     -4.75000000e-04     -7.25000000e-04      0.00000000e+00      2.50000000e-04
 12  2     -4.50000000e-04     -7.25000000e-04      0.00000000e+00      2.50000000e-04
 13  2     -4.25000000e-04     -7.25000000e-04      0.00000000e+00      2.50000000e-04
 14  2     -4.00000000e-04     -7.25000000e-04      0.00000000e+00      2.50000000e-04
 15  2     -3.75000000e-04     -7.25000000e-04      0.00000000e+00      2.50000000e-04
 16  2     -3.50000000e-04     -7.25000000e-04      0.00000000e+00      2.50000000e-04
 17  2     -3.25000000e-04     -7.25000000e-04      0.00000000e+00      2.50000000e-04
 18  2     -3.00000000e-04     -7.25000000e-04      0.00000000e+00      2.50000000e-04
 19  2     -2.75000000e-04     -7.25000000e-04      0.00000000e+00      2.50000000e-04
 20  2     -2.50000000e-04     -7.25000000e-04      0.00000000e+00      2.50000000e-04
 21  2     -2.25000000e-04     -7.25000000e-04      0.00000000e+00      2.50000000e-04
 22  2     -2.00000000e-04     -7.25000000e-04      0.00000000e+00      2.50000000e-04
 23  2     -1.75000000e-04     -7.25000000e-04      0.00000000e+00      2.50000000e-04
 24  2     -1.50000000e-04     -7.25000000e-04      0.00000000e+00      2.50000000e-04
 25  2     -1.25000000e-04     -7.25000000e-04      0.00000000e+00      2.50000000e-04
 26  2     -1.00000000e-04     -7.25000000e-04      0.00000000e+00      2.50000000e-04
 27  2     -7.50000000e-05     -7.25000000e-04      0.00000000e+00      2.50000000e-04
 28  2     -5.00000000e-05     -7.25000000e-04      0.00000000e+00      2.50000000e-04
 29  2     -2.50000000e-05     -7.25000000e-04      0.00000000e+00      2.50000000e-04
 30  2      0.00000000e+00     -7.25000000e-04      0.00000000e+00      2.50000000e-04
 31  2      2.50000000e-05     -7.25000000e-04      0.00000000e+00      2.50000000e-04
 32  2      5.00000000e-05     -7.25000000e-04      0.00000000e+00      2.50000000e-04
 33  2      7.50000000e-05     -7.25000000e-04      0.00000000e+00      2.50000000e-04
 34  2      1.00000000e-04     -7.25000000e-04      0.00000000e+00      2.50000000e-04
 35  2      1.25000000e-04     -7.25000000e-04      0.00000000e+00      2.50000000e-04
 36  2      1.50000000e-04     -7.25000000e-04      0.00000000e+00      2.50000000e-04
 37  2      1.75000000e-04     -7.25000000e-04      0.00000000e+00      2.50000000e-04
 38  2      2.00000000e-04     -7.25000000e-04      0.00000000e+00      2.50000000e-04
 39  2      2.25000000e-04     -7.25000000e-04      0.00000000e+00      2.50000000e-04
 40  2      2.50000000e-04     -7.25000000e-04      0.00000000e+00      2.50000000e-04
 41  2      2.75000000e-04     -7.25000000e-04      0.00000000e+00      2.50000000e-04
 42  2      3.00000000e-04     -7.25000000e-04      0.00000000e+00      2.50000000e-04
 43  2      3.25000000e-04     -7.25000000e-04      0.00000000e+00      2.50000000e-04
 44  2      3.50000000e-04     -7.25000000e-04      0.00000000e+00      2.50000000e-04
 45  2      3.75000000e-04     -7.25000000e-04      0.00000000e+00      2.50000000e-04
 46  2      4.00000000e-04     -7.25000000e-04      0.00000000e+00      2.50000000e-04
 47  2      4.25000000e-04     -7.25000000e-04      0.00000000e+00      2.50000000e-04
 48  2      4.50000000e-04     -7.25000000e-04      0.00000000e+00      2.50000000e-04
 49  2      4.75000000e-04     -7.25000000e-04      0.00000000e+00      2.50000000e-04
 50  2      5.00000000e-04     -7.25000000e-04      0.00000000e+00      2.50000000e-04
 51  2      5.25000000e-04     -7.25000000e-04      0.00000000e+00      2.50000000e-04
 52  2      5.50000000e-04     -7.25000000e-04      0.00000000e+00      2.50000000e-04
 53  2      5.75000000e-04     -7.25000000e-04      0.00000000e+00      2.50000000e-04
 54  2      6.00000000e-04     -7.25000000e-04      0.00000000e+00      2.50000000e-04
 55  2      6.25000000e-04     -7.25000000e-04      0.00000000e+00      2.50000000e-04
 56  2      6.50000000e-04     -7.25000000e-04      0.00000000e+00      2.50000000e-04
 57  2      6.75000000e-04     -7.25000000e-04      0.00000000e+00      2.50000000e-04
 58  2      7.00000000e-04     -7.25000000e-04      0.00000000e+00      2.50000000e-04
 59  2      7.25000000e-04     -7.25000000e-04      0.00000000e+00      2.50000000e-04
 60  2     -7.25000000e-04     -7.00000000e-04      0.00000000e+00      2.50000000e-04
 61  2     -7.00000000e-04     -7.00000000e-04      0.00000000e+00      2.50000000e-04
 62  2     -6.75000000e-04     -7.00000000e-04      0.00000000e+00      2.50000000e-04
 63  2     -6.50000000e-04     -7.00000000e-04      0.00000000e+00      2.50000000e-04
 64  2     -6.25000000e-04     -7.00000000e-04      0.00000000e+00      2.50000000e-04
 65  2     -6.00000000e-04     -7.00000000e-04      0.00000000e+00      2.50000000e-04
 66  2     -5.75000000e-04     -7.00000000e-04      0.00000000e+00      2.50000000e-04
 67  2     -5.50000000e-04     -7.00000000e-04      0.00000000e+00      2.50000000e-04
 68  2     -5.25000000e-04     -7.00000000e-04      0.00000000e+00      2.50000000e-04
 69  2     -5.00000000e-04     -7.00000000e-04      0.00000000e+00      2.50000000e-04
 70  2     -4.75000000e-04     -7.00000000e-04      0.00000000e+00      2.50000000e-04
 71  2     -4.50000000e-04     -7.00000000e-04      0.00000000e+00      2.50000000e-04
 72  2     -4.25000000e-04     -7.00000000e-04      0.00000000e+00      2.50000000e-04
 73  2     -4.00000000e-04     -7.00000000e-04      0.00000000e+00      2.50000000e-04
 74  2     -3.75000000e-04     -7.00000000e-04      0.00000000e+00      2.50000000e-04
 75  2     -3.50000000e-04     -7.00000000e-04      0.00000000e+00      2.50000000e-04
 76  2     -3.25000000e-04     -7.00000000e-04      0.00000000e+00      2.50000000e-04
 77  2     -3.00000000e-04     -7.00000000e-04      0.00000000e+00      2.50000000e-04
 78  2     -2.75000000e-04     -7.00000000e-04      0.00000000e+00      2.50000000e-04
 79  2     -2.50000000e-04     -7.00000000e-04      0.00000000e+00      2.50000000e-04
 80  2     -2.25000000e-04     -7.00000000e-04      0.00000000e+00      2.50000000e-04
 81  2     -2.00000000e-04     -7.00000000e-04      0.00000000e+00      2.50000000e-04
 82  2     -1.75000000e-04     -7.00000000e-04      0.00000000e+00      2.50000000e-04
 83  2     -1.50000000e-04     -7.00000000e-04      0.00000000e+00      2.50000000e-04
 84  2     -1.25000000e-04     -7.00000000e-04      0.00000000e+00      2.50000000e-04
 85  2     -1.00000000e-04     -7.00000000e-04      0.00000000e+00      2.50000000e-04
 86  2     -7.50000000e-05     -7.00000000e-04      0.00000000e+00      2.50000000e-04
 87  2     -5.00000000e-05     -7.00000000e-04      0.00000000e+00      2.50000000e-04
 88  2     -2.50000000e-05     -7.00000000e-04      0.00000000e+00      2.50000000e-04
 89  2      0.00000000e+00     -7.00000000e-04      0.00000000e+00      2.50000000e-04
 90  2      2.50000000e-05     -7.00000000e-04      0.00000000e+00      2.50000000e-04
 91  2      5.00000000e-05     -7.00000000e-04      0.00000000e+00      2.50000000e-04
 92  2      7.50000000e-05     -7.00000000e-04      0.00000000e+00      2.50000000e-04
 93  2      1.00000000e-04     -7.00000000e-04      0.00000000e+00      2.50000000e-04
 94  2      1.25000000e-04     -7.00000000e-04      0.00000000e+00      2.50000000e-04
 95  2      1.50000000e-04     -7.00000000e-04      0.00000000e+00      2.50000000e-04
 96  2      1.75000000e-04     -7.00000000e-04      0.00000000e+00      2.50000000e-04
 97  2      2.00000000e-04     -7.00000000e-04      0.00000000e+00      2.50000000e-04
 98  2      2.25000000e-04     -7.00000000e-04      0.00000000e+00      2.50000000e-04
 99  2      2.50000000e-04     -7.00000000e-04      0.00000000e+00      2.50000000e-04
100  2      2.75000000e-04     -7.00000000e-04      0.00000000e+00      2.50000000e-04
101  2      3.00000000e-04     -7.00000000e-04      0.00000000e+00      2.50000000e-04
102  2      3.25000000e-04     -7.00000000e-04      0.00000000e+00      2.50000000e-04
103  2      3.50000000e-04     -7.00000000e-04      0.00000000e+00      2.50000000e-04
104  2      3.75000000e-04     -7.00000000e-04      0.00000000e+00      2.50000000e-04
105  2      4.00000000e-04     -7.00000000e-04      0.00000000e+00      2.50000000e-04
106  2      4.25000000e-04     -7.00000000e-04      0.00000000e+00      2.50000000e-04
107  2      4.50000000e-04     -7.00000000e-04      0.00000000e+00      2.50000000e-04
108  2      4.75000000e-04     -7.00000000e-04      0.00000000e+00      2.50000000e-04
109  2      5.00000000e-04     -7.00000000e-04      0.00000000e+00      2.50000000e-04
110  2      5.25000000e-04     -7.00000000e-04      0.00000000e+00      2.50000000e-04
111  2      5.50000000e-04     -7.00000000e-04      0.00000000e+00      2.50000000e-04
112  2      5.75000000e-04     -7.00000000e-04      0.00000000e+00      2.50000000e-04
113  2      6.00000000e-04     -7.00000000e-04      0.00000000e+00      2.50000000e-04
114  2      6.25000000e-04     -7.00000000e-04      0.00000000e+00      2.50000000e-04
115  2      6.50000000e-04     -7.00000000e-04      0.00000000e+00      2.50000000e-04
116  2      6.75000000e-04     -7.00000000e-04      0.00000000e+00      2.50000000e-04
117  2      7.00000000e-04     -7.00000000e-04      0.00000000e+00      2.50000000e-04
118  2      7.25000000e-04     -7.00000000e-04      0.00000000e+00      2.50000000e-04
119  2     -7.25000000e-04     -6.75000000e-04      0.00000000e+00      2.50000000e-04
120  2     -7.00000000e-04     -6.75000000e-04      0.00000000e+00      2.50000000e-04
121  2     -6.75000000e-04     -6.75000000e-04      0.00000000e+00      2.50000000e-04
122  2     -6.50000000e-04     -6.75000000e-04      0.00000000e+00      2.50000000e-04
123  2     -6.25000000e-04     -6.75000000e-04      0.00000000e+00      2.50000000e-04
124  2     -6.00000000e-04     -6.75000000e-04      0.00000000e+00      2.50000000e-04
125  2     -5.75000000e-04     -6.75000000e-04      0.00000000e+00      2.50000000e-04
126  2     -5.50000000e-04     -6.75000000e-04      0.00000000e+00      2.50000000e-04
127  2     -5.25000000e-04     -6.75000000e-04      0.00000000e+00      2.50000000e-04
128  2     -5.00000000e-04     -6.75000000e-04      0.00000000e+00      2.50000000e-04
129  2     -4.75000000e-04     -6.75000000e-04      0.00000000e+00      2.50000000e-04
130  2     -4.50000000e-04     -6.75000000e-04      0.00000000e+00      2.50000000e-04
131  2     -4.25000000e-04     -6.75000000e-04      0.00000000e+00      2.50000000e-04
132  2     -4.00000000e-04     -6.75000000e-04      0.00000000e+00      2.50000000e-04
133  2     -3.75000000e-04     -6.75000000e-04      0.00000000e+00      2.50000000e-04
134  2     -3.50000000e-04     -6.75000000e-04      0.00000000e+00      2.50000000e-04
135  2     -3.25000000e-04     -6.75000000e-04      0.00000000e+00      2.50000000e-04
136  2     -3.00000000e-04     -6.75000000e-04      0.00000000e+00      2.50000000e-04
137  2     -2.75000000e-04     -6.75000000e-04      0.00000000e+00      2.50000000e-04
138  2     -2.50000000e-04     -6.75000000e-04      0.00000000e+00      2.50000000e-04
139  2     -2.25000000e-04     -6.75000000e-04      0.00000000e+00      2.50000000e-04
140  2     -2.00000000e-04     -6.75000000e-04      0.00000000e+00      2.50000000e-04
141  2     -1.75000000e-04     -6.75000000e-04      0.00000000e+00      2.50000000e-04
142  2     -1.50000000e-04     -6.75000000e-04      0.00000000e+00      2.50000000e-04
143  2     -1.25000000e-04     -6.75000000e-04      0.00000000e+00      2.50000000e-04
144  2     -1.00000000e-04     -6.75000000e-04      0.00000000e+00      2.50000000e-04
145  2     -7.50000000e-05     -6.75000000e-04      0.00000000e+00      2.50000000e-04
146  2     -5.00000000e-05     -6.75000000e-04      0.00000000e+00      2.50000000e-04
147  2     -2.50000000e-05     -6.75000000e-04      0.00000000e+00      2.50000000e-04
148  2      0.00000000e+00     -6.75000000e-04      0.00000000e+00      2.50000000e-04
149  2      2.50000000e-05     -6.75000000e-04      0.00000000e+00      2.50000000e-04
150  2      5.00000000e-05     -6.75000000e-04      0.00000000e+00      2.50000000e-04
151  2      7.50000000e-05     -6.75000000e-04      0.00000000e+00      2.50000000e-04
152  2      1.00000000e-04     -6.75000000e-04      0.00000000e+00      2.50000000e-04
153  2      1.25000000e-04     -6.75000000e-04      0.00000000e+00      2.50000000e-04
154  2      1.50000000e-04     -6.75000000e-04      0.00000000e+00      2.50000000e-04
155  2      1.75000000e-04     -6.75000000e-04      0.00000000e+00      2.50000000e-04
156  2      2.00000000e-04     -6.75000000e-04      0.00000000e+00      2.50000000e-04
157  2      2.25000000e-04     -6.75000000e-04      0.00000000e+00      2.50000000e-04
158  2      2.50000000e-04     -6.75000000e-04      0.00000000e+00      2.50000000e-04
159  2      2.75000000e-04     -6.75000000e-04      0.00000000e+00      2.50000000e-04
160  2      3.00000000e-04     -6.75000000e-04      0.00000000e+00      2.50000000e-04
161  2      3.25000000e-04     -6.75000000e-04      0.00000000e+00      2.50000000e-04
162  2      3.50000000e-04     -6.75000000e-04      0.00000000e+00      2.50000000e-04
163  2      3.75000000e-04     -6.75000000e-04      0.00000000e+00      2.50000000e-04
164  2      4.00000000e-04     -6.75000000e-04      0.00000000e+00      2.50000000e-04
165  2      4.25000000e-04     -6.75000000e-04      0.00000000e+00      2.50000000e-04
166  2      4.50000000e-04     -6.75000000e-04      0.00000000e+00      2.50000000e-04
167  2      4.75000000e-04     -6.75000000e-04      0.00000000e+00      2.50000000e-04
168  2      5.00000000e-04     -6.75000000e-04      0.00000000e+00      2.50000000e-04
169  2      5.25000000e-04     -6.75000000e-04      0.00000000e+00      2.50000000e-04
170  2      5.50000000e-04     -6.75000000e-04      0.00000000e+00      2.50000000e-04
171  2      5.75000000e-04     -6.75000000e-04      0.00000000e+00      2.50000000e-04
172  2      6.00000000e-04     -6.75000000e-04      0.00000000e+00      2.50000000e-04
173  2      6.25000000e-04     -6.75000000e-04      0.00000000e+00      2.50000000e-04
174  2      6.50000000e-04     -6.75000000e-04      0.00000000e+00      2.50000000e-04
175  2      6.75000000e-04     -6.75000000e-04      0.00000000e+00      2.50000000e-04
176  2      7.00000000e-04     -6.75000000e-04      0.00000000e+00      2.50000000e-04
177  2      7.25000000e-04     -6.75000000e-04      0.00000000e+00      2.50000000e-04
178  2     -7.25000000e-04     -6.50000000e-04      0.00000000e+00      2.50000000e-04
179  2     -7.00000000e-04     -6.50000000e-04      0.00000000e+00      2.50000000e-04
180  2     -6.75000000e-04     -6.50000000e-04      0.00000000e+00      2.50000000e-04
181  2     -6.50000000e-04     -6.50000000e-04      0.00000000e+00      2.50000000e-04
182  2     -6.25000000e-04     -6.50000000e-04      0.00000000e+00      2.50000000e-04
183  2     -6.00000000e-04     -6.50000000e-04      0.00000000e+00      2.50000000e-04
184  2     -5.75000000e-04     -6.50000000e-04      0.00000000e+00      2.50000000e-04
185  2     -5.50000000e-04     -6.50000000e-04      0.00000000e+00      2.50000000e-04
186  2     -5.25000000e-04     -6.50000000e-04      0.00000000e+00      2.50000000e-04
187  2     -5.00000000e-04     -6.50000000e-04      0.00000000e+00      2.50000000e-04
188  2     -4.75000000e-04     -6.50000000e-04      0.00000000e+00      2.50000000e-04
189  2     -4.50000000e-04     -6.50000000e-04      0.00000000e+00      2.50000000e-04
190  2     -4.25000000e-04     -6.50000000e-04      0.00000000e+00      2.50000000e-04
191  2     -4.00000000e-04     -6.50000000e-04      0.00000000e+00      2.50000000e-04
192  2     -3.75000000e-04     -6.50000000e-04      0.00000000e+00      2.50000000e-04
193  2     -3.50000000e-04     -6.50000000e-04      0.00000000e+00      2.50000000e-04
194  2     -3.25000000e-04     -6.50000000e-04      0.00000000e+00      2.50000000e-04
195  2     -3.00000000e-04     -6.50000000e-04      0.00000000e+00      2.50000000e-04
196  2     -2.75000000e-04     -6.50000000e-04      0.00000000e+00      2.50000000e-04
197  2     -2.50000000e-04     -6.50000000e-04      0.00000000e+00      2.50000000e-04
198  2     -2.25000000e-04     -6.50000000e-04      0.00000000e+00      2.50000000e-04
199  2     -2.00000000e-04     -6.50000000e-04      0.00000000e+00      2.50000000e-04
200  2     -1.75000000e-04     -6.50000000e-04      0.00000000e+00      2.50000000e-04
201  2     -1.50000000e-04     -6.50000000e-04      0.00000000e+00      2.50000000e-04
202  2     -1.25000000e-04     -6.50000000e-04      0.00000000e+00      2.50000000e-04
203  2     -1.00000000e-04     -6.50000000e-04      0.00000000e+00      2.50000000e-04
204  2     -7.50000000e-05     -6.50000000e-04      0.00000000e+00      2.50000000e-04
205  2     -5.00000000e-05     -6.50000000e-04      0.00000000e+00      2.50000000e-04
206  2     -2.50000000e-05     -6.50000000e-04      0.00000000e+00      2.50000000e-04
207  2      0.00000000e+00     -6.50000000e-04      0.00000000e+00      2.50000000e-04
208  2      2.50000000e-05     -6.50000000e-04      0.00000000e+00      2.50000000e-04
209  2      5.00000000e-05     -6.50000000e-04      0.00000000e+00      2.50000000e-04
210  2      7.50000000e-05     -6.50000000e-04      0.00000000e+00      2.50000000e-04
211  2      1.00000000e-04     -6.50000000e-04      0.00000000e+00      2.50000000e-04
212  2      1.25000000e-04     -6.50000000e-04      0.00000000e+00      2.50000000e-04
213  2      1.50000000e-04     -6.50000000e-04      0.00000000e+00      2.50000000e-04
214  2      1.75000000e-04     -6.50000000e-04      0.00000000e+00      2.50000000e-04
215  2      2.00000000e-04     -6.50000000e-04      0.00000000e+00      2.50000000e-04
216  2      2.25000000e-04     -6.50000000e-04      0.00000000e+00      2.50000000e-04
217  2      2.50000000e-04     -6.50000000e-04      0.00000000e+00      2.50000000e-04
218  2      2.75000000e-04     -6.50000000e-04      0.00000000e+00      2.50000000e-04
219  2      3.00000000e-04     -6.50000000e-04      0.00000000e+00      2.50000000e-04
220  2      3.25000000e-04     -6.50000000e-04      0.00000000e+00      2.50000000e-04
221  2      3.50000000e-04     -6.50000000e-04      0.00000000e+00      2.50000000e-04
222  2      3.75000000e-04     -6.50000000e-04      0.00000000e+00      2.50000000e-04
223  2      4.00000000e-04     -6.50000000e-04      0.00000000e+00      2.50000000e-04
224  2      4.25000000e-04     -6.50000000e-04      0.00000000e+00      2.50000000e-04
225  2      4.50000000e-04     -6.50000000e-04      0.00000000e+00      2.50000000e-04
226  2      4.75000000e-04     -6.50000000e-04      0.00000000e+00      2.50000000e-04
227  2      5.00000000e-04     -6.50000000e-04      0.00000000e+00      2.50000000e-04
228  2      5.25000000e-04     -6.50000000e-04      0.00000000e+00      2.50000000e-04
229  2      5.50000000e-04     -6.50000000e-04      0.00000000e+00      2.50000000e-04
230  2      5.75000000e-04     -6.50000000e-04      0.00000000e+00      2.50000000e-04
231  2      6.00000000e-04     -6.50000000e-04      0.00000000e+00      2.50000000e-04
232  2      6.25000000e-04     -6.50000000e-04      0.00000000e+00      2.50000000e-04
233  2      6.50000000e-04     -6.50000000e-04      0.00000000e+00      2.50000000e-04
234  2      6.75000000e-04     -6.50000000e-04      0.00000000e+00      2.50000000e-04
235  2      7.00000000e-04     -6.50000000e-04      0.00000000e+00      2.50000000e-04
236  2      7.25000000e-04     -6.50000000e-04      0.00000000e+00      2.50000000e-04
237  2     -7.25000000e-04     -6.25000000e-04      0.00000000e+00      2.50000000e-04
238  2     -7.00000000e-04     -6.25000000e-04      0.00000000e+00      2.50000000e-04
239  2     -6.75000000e-04     -6.25000000e-04      0.00000000e+00      2.50000000e-04
240  2     -6.50000000e-04     -6.25000000e-04      0.00000000e+00      2.50000000e-04
241  2     -6.25000000e-04     -6.25000000e-04      0.00000000e+00      2.50000000e-04
242  2     -6.00000000e-04     -6.25000000e-04      0.00000000e+00      2.50000000e-04
243  2     -5.75000000e-04     -6.25000000e-04      0.00000000e+00      2.50000000e-04
244  2     -5.50000000e-04     -6.25000000e-04      0.00000000e+00      2.50000000e-04
245  2     -5.25000000e-04     -6.25000000e-04      0.00000000e+00      2.50000000e-04
246  2     -5.00000000e-04     -6.25000000e-04      0.00000000e+00      2.50000000e-04
247  2     -4.75000000e-04     -6.25000000e-04      0.00000000e+00      2.50000000e-04
248  2     -4.50000000e-04     -6.25000000e-04      0.00000000e+00      2.50000000e-04
249  2     -4.25000000e-04     -6.25000000e-04      0.00000000e+00      2.50000000e-04
250  2     -4.00000000e-04     -6.25000000e-04      0.00000000e+00      2.50000000e-04
251  2     -3.75000000e-04     -6.25000000e-04      0.00000000e+00      2.50000000e-04
252  2     -3.50000000e-04     -6.25000000e-04      0.00000000e+00      2.50000000e-04
253  2     -3.25000000e-04     -6.25000000e-04      0.00000000e+00      2.50000000e-04
254  2     -3.00000000e-04     -6.25000000e-04      0.00000000e+00      2.50000000e-04
255  2     -2.75000000e-04     -6.25000000e-04      0.00000000e+00      2.50000000e-04
256  2     -2.50000000e-04     -6.25000000e-04      0.00000000e+00      2.50000000e-04
257  2     -2.25000000e-04     -6.25000000e-04      0.00000000e+00      2.50000000e-04
258  2     -2.00000000e-04     -6.25000000e-04      0.00000000e+00      2.50000000e-04
259  2     -1.75000000e-04     -6.25000000e-04      0.00000000e+00      2.50000000e-04
260  2     -1.50000000e-04     -6.25000000e-04      0.00000000e+00      2.50000000e-04
261  2     -1.25000000e-04     -6.25000000e-04      0.00000000e+00      2.50000000e-04
262  2     -1.00000000e-04     -6.25000000e-04      0.00000000e+00      2.50000000e-04
263  2     -7.50000000e-05     -6.25000000e-04      0.00000000e+00      2.50000000e-04
264  2     -5.00000000e-05     -6.25000000e-04      0.00000000e+00      2.50000000e-04
265  2     -2.50000000e-05     -6.25000000e-04      0.00000000e+00      2.50000000e-04
266  2      0.00000000e+00     -6.25000000e-04      0.00000000e+00      2.50000000e-04
267  2      2.50000000e-05     -6.25000000e-04      0.00000000e+00      2.50000000e-04
268  2      5.00000000e-05     -6.25000000e-04      0.00000000e+00      2.50000000e-04
269  2      7.50000000e-05     -6.25000000e-04      0.00000000e+00      2.50000000e-04
270  2      1.00000000e-04     -6.25000000e-04      0.00000000e+00      2.50000000e-04
271  2      1.25000000e-04     -6.25000000e-04      0.00000000e+00      2.50000000e-04
272  2      1.50000000e-04     -6.25000000e-04      0.00000000e+00      2.50000000e-04
273  2      1.75000000e-04     -6.25000000e-04      0.00000000e+00      2.50000000e-04
274  2      2.00000000e-04     -6.25000000e-04      0.00000000e+00      2.50000000e-04
275  2      2.25000000e-04     -6.25000000e-04      0.00000000e+00      2.50000000e-04
276  2      2.50000000e-04     -6.25000000e-04      0.00000000e+00      2.50000000e-04
277  2      2.75000000e-04     -6.25000000e-04      0.00000000e+00      2.50000000e-04
278  2      3.00000000e-04     -6.25000000e-04      0.00000000e+00      2.50000000e-04
279  2      3.25000000e-04     -6.25000000e-04      0.00000000e+00      2.50000000e-04
280  2      3.50000000e-04     -6.25000000e-04      0.00000000e+00      2.50000000e-04
281  2      3.75000000e-04     -6.25000000e-04      0.00000000e+00      2.50000000e-04
282  2      4.00000000e-04     -6.25000000e-04      0.00000000e+00      2.50000000e-04
283  2      4.25000000e-04     -6.25000000e-04      0.00000000e+00      2.50000000e-04
284  2      4.50000000e-04     -6.25000000e-04      0.00000000e+00      2.50000000e-04
285  2      4.75000000e-04     -6.25000000e-04      0.00000000e+00      2.50000000e-04
286  2      5.00000000e-04     -6.25000000e-04      0.00000000e+00      2.50000000e-04
287  2      5.25000000e-04     -6.25000000e-04      0.00000000e+00      2.50000000e-04
288  2      5.50000000e-04     -6.25000000e-04      0.00000000e+00      2.50000000e-04
289  2      5.75000000e-04     -6.25000000e-04      0.00000000e+00      2.50000000e-04
290  2      6.00000000e-04     -6.25000000e-04      0.00000000e+00      2.50000000e-04
291  2      6.25000000e-04     -6.25000000e-04      0.00000000e+00      2.50000000e-04
292  2      6.50000000e-04     -6.25000000e-04      0.00000000e+00      2.50000000e-04
293  2      6.75000000e-04     -6.25000000e-04      0.00000000e+00      2.50000000e-04
294  2      7.00000000e-04     -6.25000000e-04      0.00000000e+00      2.50000000e-04
295  2      7.25000000e-04     -6.25000000e-04      0.00000000e+00      2.50000000e-04
296  2     -7.25000000e-04     -6.00000000e-04      0.00000000e+00      2.50000000e-04
297  2     -7.00000000e-04     -6.00000000e-04      0.00000000e+00      2.50000000e-04
298  2     -6.75000000e-04     -6.00000000e-04      0.00000000e+00      2.50000000e-04
299  2     -6.50000000e-04     -6.00000000e-04      0.00000000e+00      2.50000000e-04
300  2     -6.25000000e-04     -6.00000000e-04      0.00000000e+00      2.50000000e-04
301  2     -6.00000000e-04     -6.00000000e-04      0.00000000e+00      2.50000000e-04
302  2     -5.75000000e-04     -6.00000000e-04      0.00000000e+00      2.50000000e-04
303  2     -5.50000000e-04     -6.00000000e-04      0.00000000e+00      2.50000000e-04
304  2     -5.25000000e-04     -6.00000000e-04      0.00000000e+00      2.50000000e-04
305  2     -5.00000000e-04     -6.00000000e-04      0.00000000e+00      2.50000000e-04
306  2     -4.75000000e-04     -6.00000000e-04      0.00000000e+00      2.50000000e-04
307  2     -4.50000000e-04     -6.00000000e-04      0.00000000e+00      2.50000000e-04
308  2     -4.25000000e-04     -6.00000000e-04      0.00000000e+00      2.50000000e-04
309  2     -4.00000000e-04     -6.00000000e-04      0.00000000e+00      2.50000000e-04
310  2     -3.75000000e-04     -6.00000000e-04      0.00000000e+00      2.50000000e-04
311  2     -3.50000000e-04     -6.00000000e-04      0.00000000e+00      2.50000000e-04
312  2     -3.25000000e-04     -6.00000000e-04      0.00000000e+00      2.50000000e-04
313  2     -3.00000000e-04     -6.00000000e-04      0.00000000e+00      2.50000000e-04
314  2     -2.75000000e-04     -6.00000000e-04      0.00000000e+00      2.50000000e-04
315  2     -2.50000000e-04     -6.00000000e-04      0.00000000e+00      2.50000000e-04
316  2     -2.25000000e-04     -6.00000000e-04      0.00000000e+00      2.50000000e-04
317  2     -2.00000000e-04     -6.00000000e-04      0.00000000e+00      2.50000000e-04
318  2     -1.75000000e-04     -6.00000000e-04      0.00000000e+00      2.50000000e-04
319  2     -1.50000000e-04     -6.00000000e-04      0.00000000e+00      2.50000000e-04
320  2     -1.25000000e-04     -6.00000000e-04      0.00000000e+00      2.50000000e-04
321  2     -1.00000000e-04     -6.00000000e-04      0.00000000e+00      2.50000000e-04
322  2     -7.50000000e-05     -6.00000000e-04      0.00000000e+00      2.50000000e-04
323  2     -5.00000000e-05     -6.00000000e-04      0.00000000e+00      2.50000000e-04
324  2     -2.50000000e-05     -6.00000000e-04      0.00000000e+00      2.50000000e-04
325  2      0.00000000e+00     -6.00000000e-04      0.00000000e+00      2.50000000e-04
326  2      2.50000000e-05     -6.00000000e-04      0.00000000e+00      2.50000000e-04
327  2      5.00000000e-05     -6.00000000e-04      0.00000000e+00      2.50000000e-04
328  2      7.50000000e-05     -6.00000000e-04      0.00000000e+00      2.50000000e-04
329  2      1.00000000e-04     -6.00000000e-04      0.00000000e+00      2.50000000e-04
330  2      1.25000000e-04     -6.00000000e-04      0.00000000e+00      2.50000000e-04
331  2      1.50000000e-04     -6.00000000e-04      0.00000000e+00      2.50000000e-04
332  2      1.75000000e-04     -6.00000000e-04      0.00000000e+00      2.50000000e-04
333  2      2.00000000e-04     -6.00000000e-04      0.00000000e+00      2.50000000e-04
334  2      2.25000000e-04     -6.00000000e-04      0.00000000e+00      2.50000000e-04
335  2      2.50000000e-04     -6.00000000e-04      0.00000000e+00      2.50000000e-04
336  2      2.75000000e-04     -6.00000000e-04      0.00000000e+00      2.50000000e-04
337  2      3.00000000e-04     -6.00000000e-04      0.00000000e+00      2.50000000e-04
338  2      3.25000000e-04     -6.00000000e-04      0.00000000e+00      2.50000000e-04
339  2      3.50000000e-04     -6.00000000e-04      0.00000000e+00      2.50000000e-04
340  2      3.75000000e-04     -6.00000000e-04      0.00000000e+00      2.50000000e-04
341  2      4.00000000e-04     -6.00000000e-04      0.00000000e+00      2.50000000e-04
342  2      4.25000000e-04     -6.00000000e-04      0.00000000e+00      2.50000000e-04
343  2      4.50000000e-04     -6.00000000e-04      0.00000000e+00      2.50000000e-04