ITEM: TIMESTEP
0
ITEM: NUMBER OF ATOMS
15
ITEM: ATOMS id type x y z radius
  1  1      0.00000000e+00     -8.75000000e-04      0.00000000e+00      2.50000000e-04
  2  1      0.00000000e+00     -7.50000000e-04      0.00000000e+00      2.50000000e-04
  3  1      0.00000000e+00     -6.25000000e-04      0.00000000e+00      2.50000000e-04
  4  1      0.00000000e+00     -5.00000000e-04      0.00000000e+00      2.50000000e-04
  5  1      0.00000000e+00     -3.75000000e-04      0.00000000e+00      2.50000000e-04
  6  1      0.00000000e+00     -2.50000000e-04      0.00000000e+00      2.50000000e-04
  7  1      0.00000000e+00     -1.25000000e-04      0.00000000e+00      2.50000000e-04
  8  1      0.00000000e+00      0.00000000e+00      0.00000000e+00      2.50000000e-04
  9  1      0.00000000e+00      1.25000000e-04      0.00000000e+00      2.50000000e-04
 10  1      0.00000000e+00      2.50000000e-04      0.00000000e+00      2.50000000e-04
 11  1      0.00000000e+00      3.75000000e-04      0.00000000e+00      2.50000000e-04
 12  1      0.00000000e+00      5.00000000e-04      0.00000000e+00      2.50000000e-04
 13  1      0.00000000e+00      6.25000000e-04      0.00000000e+00      2.50000000e-04
 14  1      0.00000000e+00      7.50000000e-04      0.00000000e+00      2.50000000e-04
 15  1      0.00000000e+00      8.75000000e-04      0.00000000e+00      2.50000000e-04
