ITEM: TIMESTEP
0
ITEM: NUMBER OF ATOMS
121
ITEM: ATOMS id type x y z radius
  1  2     -6.25000000e-04     -6.25000000e-04      0.00000000e+00      2.50000000e-04
  2  2     -5.00000000e-04     -6.25000000e-04      0.00000000e+00      2.50000000e-04
  3  2     -3.75000000e-04     -6.25000000e-04      0.00000000e+00      2.50000000e-04
  4  2     -2.50000000e-04     -6.25000000e-04      0.00000000e+00      2.50000000e-04
  5  2     -1.25000000e-04     -6.25000000e-04      0.00000000e+00      2.50000000e-04
  6  2      0.00000000e+00     -6.25000000e-04      0.00000000e+00      2.50000000e-04
  7  2      1.25000000e-04     -6.25000000e-04      0.00000000e+00      2.50000000e-04
  8  2      2.50000000e-04     -6.25000000e-04      0.00000000e+00      2.50000000e-04
  9  2      3.75000000e-04     -6.25000000e-04      0.00000000e+00      2.50000000e-04
 10  2      5.00000000e-04     -6.25000000e-04      0.00000000e+00      2.50000000e-04
 11  2      6.25000000e-04     -6.25000000e-04      0.00000000e+00      2.50000000e-04
 12  2     -6.25000000e-04     -5.00000000e-04      0.00000000e+00      2.50000000e-04
 13  2     -5.00000000e-04     -5.00000000e-04      0.00000000e+00      2.50000000e-04
 14  2     -3.75000000e-04     -5.00000000e-04      0.00000000e+00      2.50000000e-04
 15  2     -2.50000000e-04     -5.00000000e-04      0.00000000e+00      2.50000000e-04
 16  2     -1.25000000e-04     -5.00000000e-04      0.00000000e+00      2.50000000e-04
 17  2      0.00000000e+00     -5.00000000e-04      0.00000000e+00      2.50000000e-04
 18  2      1.25000000e-04     -5.00000000e-04      0.00000000e+00      2.50000000e-04
 19  2      2.50000000e-04     -5.00000000e-04      0.00000000e+00      2.50000000e-04
 20  2      3.75000000e-04     -5.00000000e-04      0.00000000e+00      2.50000000e-04
 21  2      5.00000000e-04     -5.00000000e-04      0.00000000e+00      2.50000000e-04
 22  2      6.25000000e-04     -5.00000000e-04      0.00000000e+00      2.50000000e-04
 23  2     -6.25000000e-04     -3.75000000e-04      0.00000000e+00      2.50000000e-04
 24  2     -5.00000000e-04     -3.75000000e-04      0.00000000e+00      2.50000000e-04
 25  2     -3.75000000e-04     -3.75000000e-04      0.00000000e+00      2.50000000e-04
 26  2     -2.50000000e-04     -3.75000000e-04      0.00000000e+00      2.50000000e-04
 27  2     -1.25000000e-04     -3.75000000e-04      0.00000000e+00      2.50000000e-04
 28  2      0.00000000e+00     -3.75000000e-04      0.00000000e+00      2.50000000e-04
 29  2      1.25000000e-04     -3.75000000e-04      0.00000000e+00      2.50000000e-04
 30  2      2.50000000e-04     -3.75000000e-04      0.00000000e+00      2.50000000e-04
 31  2      3.75000000e-04     -3.75000000e-04      0.00000000e+00      2.50000000e-04
 32  2      5.00000000e-04     -3.75000000e-04      0.00000000e+00      2.50000000e-04
 33  2      6.25000000e-04     -3.75000000e-04      0.00000000e+00      2.50000000e-04
 34  2     -6.25000000e-04     -2.50000000e-04      0.00000000e+00      2.50000000e-04
 35  2     -5.00000000e-04     -2.50000000e-04      0.00000000e+00      2.50000000e-04
 36  2     -3.75000000e-04     -2.50000000e-04      0.00000000e+00      2.50000000e-04
 37  2     -2.50000000e-04     -2.50000000e-04      0.00000000e+00      2.50000000e-04
 38  2     -1.25000000e-04     -2.50000000e-04      0.00000000e+00      2.50000000e-04
 39  2      0.00000000e+00     -2.50000000e-04      0.00000000e+00      2.50000000e-04
 40  2      1.25000000e-04     -2.50000000e-04      0.00000000e+00      2.50000000e-04
 41  2      2.50000000e-04     -2.50000000e-04      0.00000000e+00      2.50000000e-04
 42  2      3.75000000e-04     -2.50000000e-04      0.00000000e+00      2.50000000e-04
 43  2      5.00000000e-04     -2.50000000e-04      0.00000000e+00      2.50000000e-04
 44  2      6.25000000e-04     -2.50000000e-04      0.00000000e+00      2.50000000e-04
 45  2     -6.25000000e-04     -1.25000000e-04      0.00000000e+00      2.50000000e-04
 46  2     -5.00000000e-04     -1.25000000e-04      0.00000000e+00      2.50000000e-04
 47  2     -3.75000000e-04     -1.25000000e-04      0.00000000e+00      2.50000000e-04
 48  2     -2.50000000e-04     -1.25000000e-04      0.00000000e+00      2.50000000e-04
 49  2     -1.25000000e-04     -1.25000000e-04      0.00000000e+00      2.50000000e-04
 50  2      0.00000000e+00     -1.25000000e-04      0.00000000e+00      2.50000000e-04
 51  2      1.25000000e-04     -1.25000000e-04      0.00000000e+00      2.50000000e-04
 52  2      2.50000000e-04     -1.25000000e-04      0.00000000e+00      2.50000000e-04
 53  2      3.75000000e-04     -1.25000000e-04      0.00000000e+00      2.50000000e-04
 54  2      5.00000000e-04     -1.25000000e-04      0.00000000e+00      2.50000000e-04
 55  2      6.25000000e-04     -1.25000000e-04      0.00000000e+00      2.50000000e-04
 56  2     -6.25000000e-04      0.00000000e+00      0.00000000e+00      2.50000000e-04
 57  2     -5.00000000e-04      0.00000000e+00      0.00000000e+00      2.50000000e-04
 58  2     -3.75000000e-04      0.00000000e+00      0.00000000e+00      2.50000000e-04
 59  2     -2.50000000e-04      0.00000000e+00      0.00000000e+00      2.50000000e-04
 60  2     -1.25000000e-04      0.00000000e+00      0.00000000e+00      2.50000000e-04
 61  2      0.00000000e+00      0.00000000e+00      0.00000000e+00      2.50000000e-04
 62  2      1.25000000e-04      0.00000000e+00      0.00000000e+00      2.50000000e-04
 63  2      2.50000000e-04      0.00000000e+00      0.00000000e+00      2.50000000e-04
 64  2      3.75000000e-04      0.00000000e+00      0.00000000e+00      2.50000000e-04
 65  2      5.00000000e-04      0.00000000e+00      0.00000000e+00      2.50000000e-04
 66  2      6.25000000e-04      0.00000000e+00      0.00000000e+00      2.50000000e-04
 67  2     -6.25000000e-04      1.25000000e-04      0.00000000e+00      2.50000000e-04
 68  2     -5.00000000e-04      1.25000000e-04      0.00000000e+00      2.50000000e-04
 69  2     -3.75000000e-04      1.25000000e-04      0.00000000e+00      2.50000000e-04
 70  2     -2.50000000e-04      1.25000000e-04      0.00000000e+00      2.50000000e-04
 71  2     -1.25000000e-04      1.25000000e-04      0.00000000e+00      2.50000000e-04
 72  2      0.00000000e+00      1.25000000e-04      0.00000000e+00      2.50000000e-04
 73  2      1.25000000e-04      1.25000000e-04      0.00000000e+00      2.50000000e-04
 74  2      2.50000000e-04      1.25000000e-04      0.00000000e+00      2.50000000e-04
 75  2      3.75000000e-04      1.25000000e-04      0.00000000e+00      2.50000000e-04
 76  2      5.00000000e-04      1.25000000e-04      0.00000000e+00      2.50000000e-04
 77  2      6.25000000e-04      1.25000000e-04      0.00000000e+00      2.50000000e-04
 78  2     -6.25000000e-04      2.50000000e-04      0.00000000e+00      2.50000000e-04
 79  2     -5.00000000e-04      2.50000000e-04      0.00000000e+00      2.50000000e-04
 80  2     -3.75000000e-04      2.50000000e-04      0.00000000e+00      2.50000000e-04
 81  2     -2.50000000e-04      2.50000000e-04      0.00000000e+00      2.50000000e-04
 82  2     -1.25000000e-04      2.50000000e-04      0.00000000e+00      2.50000000e-04
 83  2      0.00000000e+00      2.50000000e-04      0.00000000e+00      2.50000000e-04
 84  2      1.25000000e-04      2.50000000e-04      0.00000000e+00      2.50000000e-04
 85  2      2.50000000e-04      2.50000000e-04      0.00000000e+00      2.50000000e-04
 86  2      3.75000000e-04      2.50000000e-04      0.00000000e+00      2.50000000e-04
 87  2      5.00000000e-04      2.50000000e-04      0.00000000e+00      2.50000000e-04
 88  2      6.25000000e-04      2.50000000e-04      0.00000000e+00      2.50000000e-04
 89  2     -6.25000000e-04      3.75000000e-04      0.00000000e+00      2.50000000e-04
 90  2     -5.00000000e-04      3.75000000e-04      0.00000000e+00      2.50000000e-04
 91  2     -3.75000000e-04      3.75000000e-04      0.00000000e+00      2.50000000e-04
 92  2     -2.50000000e-04      3.75000000e-04      0.00000000e+00      2.50000000e-04
 93  2     -1.25000000e-04      3.75000000e-04      0.00000000e+00      2.50000000e-04
 94  2      0.00000000e+00      3.75000000e-04      0.00000000e+00      2.50000000e-04
 95  2      1.25000000e-04      3.75000000e-04      0.00000000e+00      2.50000000e-04
 96  2      2.50000000e-04      3.75000000e-04      0.00000000e+00      2.50000000e-04
 97  2      3.75000000e-04      3.75000000e-04      0.00000000e+00      2.50000000e-04
 98  2      5.00000000e-04      3.75000000e-04      0.00000000e+00      2.50000000e-04
 99  2      6.25000000e-04      3.75000000e-04      0.00000000e+00      2.50000000e-04
100  2     -6.25000000e-04      5.00000000e-04      0.00000000e+00      2.50000000e-04
101  2     -5.00000000e-04      5.00000000e-04      0.00000000e+00      2.50000000e-04
102  2     -3.75000000e-04      5.00000000e-04      0.00000000e+00      2.50000000e-04
103  2     -2.50000000e-04      5.00000000e-04      0.00000000e+00      2.50000000e-04
104  2     -1.25000000e-04      5.00000000e-04      0.00000000e+00      2.50000000e-04
105  2      0.00000000e+00      5.00000000e-04      0.00000000e+00      2.50000000e-04
106  2      1.25000000e-04      5.00000000e-04      0.00000000e+00      2.50000000e-04
107  2      2.50000000e-04      5.00000000e-04      0.00000000e+00      2.50000000e-04
108  2      3.75000000e-04      5.00000000e-04      0.00000000e+00      2.50000000e-04
109  2      5.00000000e-04      5.00000000e-04      0.00000000e+00      2.50000000e-04
110  2      6.25000000e-04      5.00000000e-04      0.00000000e+00      2.50000000e-04
111  2     -6.25000000e-04      6.25000000e-04      0.00000000e+00      2.50000000e-04
112  2     -5.00000000e-04      6.25000000e-04      0.00000000e+00      2.50000000e-04
113  2     -3.75000000e-04      6.25000000e-04      0.00000000e+00      2.50000000e-04
114  2     -2.50000000e-04      6.25000000e-04      0.00000000e+00      2.50000000e-04
115  2     -1.25000000e-04      6.25000000e-04      0.00000000e+00      2.50000000e-04
116  2      0.00000000e+00      6.25000000e-04      0.00000000e+00      2.50000000e-04
117  2      1.25000000e-04      6.25000000e-04      0.00000000e+00      2.50000000e-04
118  2      2.50000000e-04      6.25000000e-04      0.00000000e+00      2.50000000e-04
119  2      3.75000000e-04      6.25000000e-04      0.00000000e+00      2.50000000e-04
120  2      5.00000000e-04      6.25000000e-04      0.00000000e+00      2.50000000e-04
121  2      6.25000000e-04      6.25000000e-04      0.00000000e+00      2.50000000e-04
