ITEM: TIMESTEP
0
ITEM: NUMBER OF ATOMS
18467
ITEM: ATOMS id type x y z radius
  1  3      0.00000000e+00     -2.50000000e-04     -7.25000000e-04      2.50000000e-04
  2  3     -1.00000000e-04     -2.25000000e-04     -7.25000000e-04      2.50000000e-04
  3  3     -7.50000000e-05     -2.25000000e-04     -7.25000000e-04      2.50000000e-04
  4  3     -5.00000000e-05     -2.25000000e-04     -7.25000000e-04      2.50000000e-04
  5  3     -2.50000000e-05     -2.25000000e-04     -7.25000000e-04      2.50000000e-04
  6  3      0.00000000e+00     -2.25000000e-04     -7.25000000e-04      2.50000000e-04
  7  3      2.50000000e-05     -2.25000000e-04     -7.25000000e-04      2.50000000e-04
  8  3      5.00000000e-05     -2.25000000e-04     -7.25000000e-04      2.50000000e-04
  9  3      7.50000000e-05     -2.25000000e-04     -7.25000000e-04      2.50000000e-04
 10  3      1.00000000e-04     -2.25000000e-04     -7.25000000e-04      2.50000000e-04
 11  3     -1.50000000e-04     -2.00000000e-04     -7.25000000e-04      2.50000000e-04
 12  3     -1.25000000e-04     -2.00000000e-04     -7.25000000e-04      2.50000000e-04
 13  3     -1.00000000e-04     -2.00000000e-04     -7.25000000e-04      2.50000000e-04
 14  3     -7.50000000e-05     -2.00000000e-04     -7.25000000e-04      2.50000000e-04
 15  3     -5.00000000e-05     -2.00000000e-04     -7.25000000e-04      2.50000000e-04
 16  3     -2.50000000e-05     -2.00000000e-04     -7.25000000e-04      2.50000000e-04
 17  3      0.00000000e+00     -2.00000000e-04     -7.25000000e-04      2.50000000e-04
 18  3      2.50000000e-05     -2.00000000e-04     -7.25000000e-04      2.50000000e-04
 19  3      5.00000000e-05     -2.00000000e-04     -7.25000000e-04      2.50000000e-04
 20  3      7.50000000e-05     -2.00000000e-04     -7.25000000e-04      2.50000000e-04
 21  3      1.00000000e-04     -2.00000000e-04     -7.25000000e-04      2.50000000e-04
 22  3      1.25000000e-04     -2.00000000e-04     -7.25000000e-04      2.50000000e-04
 23  3     -1.75000000e-04     -1.75000000e-04     -7.25000000e-04      2.50000000e-04
 24  3     -1.50000000e-04     -1.75000000e-04     -7.25000000e-04      2.50000000e-04
 25  3     -1.25000000e-04     -1.75000000e-04     -7.25000000e-04      2.50000000e-04
 26  3     -1.00000000e-04     -1.75000000e-04     -7.25000000e-04      2.50000000e-04
 27  3     -7.50000000e-05     -1.75000000e-04     -7.25000000e-04      2.50000000e-04
 28  3     -5.00000000e-05     -1.75000000e-04     -7.25000000e-04      2.50000000e-04
 29  3     -2.50000000e-05     -1.75000000e-04     -7.25000000e-04      2.50000000e-04
 30  3      0.00000000e+00     -1.75000000e-04     -7.25000000e-04      2.50000000e-04
 31  3      2.50000000e-05     -1.75000000e-04     -7.25000000e-04      2.50000000e-04
 32  3      5.00000000e-05     -1.75000000e-04     -7.25000000e-04      2.50000000e-04
 33  3      7.50000000e-05     -1.75000000e-04     -7.25000000e-04      2.50000000e-04
 34  3      1.00000000e-04     -1.75000000e-04     -7.25000000e-04      2.50000000e-04
 35  3      1.25000000e-04     -1.75000000e-04     -7.25000000e-04      2.50000000e-04
 36  3      1.50000000e-04     -1.75000000e-04     -7.25000000e-04      2.50000000e-04
 37  3      1.75000000e-04     -1.75000000e-04     -7.25000000e-04      2.50000000e-04
 38  3     -2.00000000e-04     -1.50000000e-04     -7.25000000e-04      2.50000000e-04
 39  3     -1.75000000e-04     -1.50000000e-04     -7.25000000e-04      2.50000000e-04
 40  3     -1.50000000e-04     -1.50000000e-04     -7.25000000e-04      2.50000000e-04
 41  3     -1.25000000e-04     -1.50000000e-04     -7.25000000e-04      2.50000000e-04
 42  3     -1.00000000e-04     -1.50000000e-04     -7.25000000e-04      2.50000000e-04
 43  3     -7.50000000e-05     -1.50000000e-04     -7.25000000e-04      2.50000000e-04
 44  3     -5.00000000e-05     -1.50000000e-04     -7.25000000e-04      2.50000000e-04
 45  3     -2.50000000e-05     -1.50000000e-04     -7.25000000e-04      2.50000000e-04
 46  3      0.00000000e+00     -1.50000000e-04     -7.25000000e-04      2.50000000e-04
 47  3      2.50000000e-05     -1.50000000e-04     -7.25000000e-04      2.50000000e-04
 48  3      5.00000000e-05     -1.50000000e-04     -7.25000000e-04      2.50000000e-04
 49  3      7.50000000e-05     -1.50000000e-04     -7.25000000e-04      2.50000000e-04
 50  3      1.00000000e-04     -1.50000000e-04     -7.25000000e-04      2.50000000e-04
 51  3      1.25000000e-04     -1.50000000e-04     -7.25000000e-04      2.50000000e-04
 52  3      1.50000000e-04     -1.50000000e-04     -7.25000000e-04      2.50000000e-04
 53  3      1.75000000e-04     -1.50000000e-04     -7.25000000e-04      2.50000000e-04
 54  3      2.00000000e-04     -1.50000000e-04     -7.25000000e-04      2.50000000e-04
 55  3     -2.00000000e-04     -1.25000000e-04     -7.25000000e-04      2.50000000e-04
 56  3     -1.75000000e-04     -1.25000000e-04     -7.25000000e-04      2.50000000e-04
 57  3     -1.50000000e-04     -1.25000000e-04     -7.25000000e-04      2.50000000e-04
 58  3     -1.25000000e-04     -1.25000000e-04     -7.25000000e-04      2.50000000e-04
 59  3     -1.00000000e-04     -1.25000000e-04     -7.25000000e-04      2.50000000e-04
 60  3     -7.50000000e-05     -1.25000000e-04     -7.25000000e-04      2.50000000e-04
 61  3     -5.00000000e-05     -1.25000000e-04     -7.25000000e-04      2.50000000e-04
 62  3     -2.50000000e-05     -1.25000000e-04     -7.25000000e-04      2.50000000e-04
 63  3      0.00000000e+00     -1.25000000e-04     -7.25000000e-04      2.50000000e-04
 64  3      2.50000000e-05     -1.25000000e-04     -7.25000000e-04      2.50000000e-04
 65  3      5.00000000e-05     -1.25000000e-04     -7.25000000e-04      2.50000000e-04
 66  3      7.50000000e-05     -1.25000000e-04     -7.25000000e-04      2.50000000e-04
 67  3      1.00000000e-04     -1.25000000e-04     -7.25000000e-04      2.50000000e-04
 68  3      1.25000000e-04     -1.25000000e-04     -7.25000000e-04      2.50000000e-04
 69  3      1.50000000e-04     -1.25000000e-04     -7.25000000e-04      2.50000000e-04
 70  3      1.75000000e-04     -1.25000000e-04     -7.25000000e-04      2.50000000e-04
 71  3      2.00000000e-04     -1.25000000e-04     -7.25000000e-04      2.50000000e-04
 72  3     -2.25000000e-04     -1.00000000e-04     -7.25000000e-04      2.50000000e-04
 73  3     -2.00000000e-04     -1.00000000e-04     -7.25000000e-04      2.50000000e-04
 74  3     -1.75000000e-04     -1.00000000e-04     -7.25000000e-04      2.50000000e-04
 75  3     -1.50000000e-04     -1.00000000e-04     -7.25000000e-04      2.50000000e-04
 76  3     -1.25000000e-04     -1.00000000e-04     -7.25000000e-04      2.50000000e-04
 77  3     -1.00000000e-04     -1.00000000e-04     -7.25000000e-04      2.50000000e-04
 78  3     -7.50000000e-05     -1.00000000e-04     -7.25000000e-04      2.50000000e-04
 79  3     -5.00000000e-05     -1.00000000e-04     -7.25000000e-04      2.50000000e-04
 80  3     -2.50000000e-05     -1.00000000e-04     -7.25000000e-04      2.50000000e-04
 81  3      0.00000000e+00     -1.00000000e-04     -7.25000000e-04      2.50000000e-04
 82  3      2.50000000e-05     -1.00000000e-04     -7.25000000e-04      2.50000000e-04
 83  3      5.00000000e-05     -1.00000000e-04     -7.25000000e-04      2.50000000e-04
 84  3      7.50000000e-05     -1.00000000e-04     -7.25000000e-04      2.50000000e-04
 85  3      1.00000000e-04     -1.00000000e-04     -7.25000000e-04      2.50000000e-04
 86  3      1.25000000e-04     -1.00000000e-04     -7.25000000e-04      2.50000000e-04
 87  3      1.50000000e-04     -1.00000000e-04     -7.25000000e-04      2.50000000e-04
 88  3      1.75000000e-04     -1.00000000e-04     -7.25000000e-04      2.50000000e-04
 89  3      2.00000000e-04     -1.00000000e-04     -7.25000000e-04      2.50000000e-04
 90  3      2.25000000e-04     -1.00000000e-04     -7.25000000e-04      2.50000000e-04
 91  3     -2.25000000e-04     -7.50000000e-05     -7.25000000e-04      2.50000000e-04
 92  3     -2.00000000e-04     -7.50000000e-05     -7.25000000e-04      2.50000000e-04
 93  3     -1.75000000e-04     -7.50000000e-05     -7.25000000e-04      2.50000000e-04
 94  3     -1.50000000e-04     -7.50000000e-05     -7.25000000e-04      2.50000000e-04
 95  3     -1.25000000e-04     -7.50000000e-05     -7.25000000e-04      2.50000000e-04
 96  3     -1.00000000e-04     -7.50000000e-05     -7.25000000e-04      2.50000000e-04
 97  3     -7.50000000e-05     -7.50000000e-05     -7.25000000e-04      2.50000000e-04
 98  3     -5.00000000e-05     -7.50000000e-05     -7.25000000e-04      2.50000000e-04
 99  3     -2.50000000e-05     -7.50000000e-05     -7.25000000e-04      2.50000000e-04
100  3      0.00000000e+00     -7.50000000e-05     -7.25000000e-04      2.50000000e-04
101  3      2.50000000e-05     -7.50000000e-05     -7.25000000e-04      2.50000000e-04
102  3      5.00000000e-05     -7.50000000e-05     -7.25000000e-04      2.50000000e-04
103  3      7.50000000e-05     -7.50000000e-05     -7.25000000e-04      2.50000000e-04
104  3      1.00000000e-04     -7.50000000e-05     -7.25000000e-04      2.50000000e-04
105  3      1.25000000e-04     -7.50000000e-05     -7.25000000e-04      2.50000000e-04
106  3      1.50000000e-04     -7.50000000e-05     -7.25000000e-04      2.50000000e-04
107  3      1.75000000e-04     -7.50000000e-05     -7.25000000e-04      2.50000000e-04
108  3      2.00000000e-04     -7.50000000e-05     -7.25000000e-04      2.50000000e-04
109  3      2.25000000e-04     -7.50000000e-05     -7.25000000e-04      2.50000000e-04
110  3     -2.25000000e-04     -5.00000000e-05     -7.25000000e-04      2.50000000e-04
111  3     -2.00000000e-04     -5.00000000e-05     -7.25000000e-04      2.50000000e-04
112  3     -1.75000000e-04     -5.00000000e-05     -7.25000000e-04      2.50000000e-04
113  3     -1.50000000e-04     -5.00000000e-05     -7.25000000e-04      2.50000000e-04
114  3     -1.25000000e-04     -5.00000000e-05     -7.25000000e-04      2.50000000e-04
115  3     -1.00000000e-04     -5.00000000e-05     -7.25000000e-04      2.50000000e-04
116  3     -7.50000000e-05     -5.00000000e-05     -7.25000000e-04      2.50000000e-04
117  3     -5.00000000e-05     -5.00000000e-05     -7.25000000e-04      2.50000000e-04
118  3     -2.50000000e-05     -5.00000000e-05     -7.25000000e-04      2.50000000e-04
119  3      0.00000000e+00     -5.00000000e-05     -7.25000000e-04      2.50000000e-04
120  3      2.50000000e-05     -5.00000000e-05     -7.25000000e-04      2.50000000e-04
121  3      5.00000000e-05     -5.00000000e-05     -7.25000000e-04      2.50000000e-04
122  3      7.50000000e-05     -5.00000000e-05     -7.25000000e-04      2.50000000e-04
123  3      1.00000000e-04     -5.00000000e-05     -7.25000000e-04      2.50000000e-04
124  3      1.25000000e-04     -5.00000000e-05     -7.25000000e-04      2.50000000e-04
125  3      1.50000000e-04     -5.00000000e-05     -7.25000000e-04      2.50000000e-04
126  3      1.75000000e-04     -5.00000000e-05     -7.25000000e-04      2.50000000e-04
127  3      2.00000000e-04     -5.00000000e-05     -7.25000000e-04      2.50000000e-04
128  3      2.25000000e-04     -5.00000000e-05     -7.25000000e-04      2.50000000e-04
129  3     -2.25000000e-04     -2.50000000e-05     -7.25000000e-04      2.50000000e-04
130  3     -2.00000000e-04     -2.50000000e-05     -7.25000000e-04      2.50000000e-04
131  3     -1.75000000e-04     -2.50000000e-05     -7.25000000e-04      2.50000000e-04
132  3     -1.50000000e-04     -2.50000000e-05     -7.25000000e-04      2.50000000e-04
133  3     -1.25000000e-04     -2.50000000e-05     -7.25000000e-04      2.50000000e-04
134  3     -1.00000000e-04     -2.50000000e-05     -7.25000000e-04      2.50000000e-04
135  3     -7.50000000e-05     -2.50000000e-05     -7.25000000e-04      2.50000000e-04
136  3     -5.00000000e-05     -2.50000000e-05     -7.25000000e-04      2.50000000e-04
137  3     -2.50000000e-05     -2.50000000e-05     -7.25000000e-04      2.50000000e-04
138  3      0.00000000e+00     -2.50000000e-05     -7.25000000e-04      2.50000000e-04
139  3      2.50000000e-05     -2.50000000e-05     -7.25000000e-04      2.50000000e-04
140  3      5.00000000e-05     -2.50000000e-05     -7.25000000e-04      2.50000000e-04
141  3      7.50000000e-05     -2.50000000e-05     -7.25000000e-04      2.50000000e-04
142  3      1.00000000e-04     -2.50000000e-05     -7.25000000e-04      2.50000000e-04
143  3      1.25000000e-04     -2.50000000e-05     -7.25000000e-04      2.50000000e-04
144  3      1.50000000e-04     -2.50000000e-05     -7.25000000e-04      2.50000000e-04
145  3      1.75000000e-04     -2.50000000e-05     -7.25000000e-04      2.50000000e-04
146  3      2.00000000e-04     -2.50000000e-05     -7.25000000e-04      2.50000000e-04
147  3      2.25000000e-04     -2.50000000e-05     -7.25000000e-04      2.50000000e-04
148  3     -2.50000000e-04      0.00000000e+00     -7.25000000e-04      2.50000000e-04
149  3     -2.25000000e-04      0.00000000e+00     -7.25000000e-04      2.50000000e-04
150  3     -2.00000000e-04      0.00000000e+00     -7.25000000e-04      2.50000000e-04
151  3     -1.75000000e-04      0.00000000e+00     -7.25000000e-04      2.50000000e-04
152  3     -1.50000000e-04      0.00000000e+00     -7.25000000e-04      2.50000000e-04
153  3     -1.25000000e-04      0.00000000e+00     -7.25000000e-04      2.50000000e-04
154  3     -1.00000000e-04      0.00000000e+00     -7.25000000e-04      2.50000000e-04
155  3     -7.50000000e-05      0.00000000e+00     -7.25000000e-04      2.50000000e-04
156  3     -5.00000000e-05      0.00000000e+00     -7.25000000e-04      2.50000000e-04
157  3     -2.50000000e-05      0.00000000e+00     -7.25000000e-04      2.50000000e-04
158  3      0.00000000e+00      0.00000000e+00     -7.25000000e-04      2.50000000e-04
159  3      2.50000000e-05      0.00000000e+00     -7.25000000e-04      2.50000000e-04
160  3      5.00000000e-05      0.00000000e+00     -7.25000000e-04      2.50000000e-04
161  3      7.50000000e-05      0.00000000e+00     -7.25000000e-04      2.50000000e-04
162  3      1.00000000e-04      0.00000000e+00     -7.25000000e-04      2.50000000e-04
163  3      1.25000000e-04      0.00000000e+00     -7.25000000e-04      2.50000000e-04
164  3      1.50000000e-04      0.00000000e+00     -7.25000000e-04      2.50000000e-04
165  3      1.75000000e-04      0.00000000e+00     -7.25000000e-04      2.50000000e-04
166  3      2.00000000e-04      0.00000000e+00     -7.25000000e-04      2.50000000e-04
167  3      2.25000000e-04      0.00000000e+00     -7.25000000e-04      2.50000000e-04
168  3      2.50000000e-04      0.00000000e+00     -7.25000000e-04      2.50000000e-04
169  3     -2.25000000e-04      2.50000000e-05     -7.25000000e-04      2.50000000e-04
170  3     -2.00000000e-04      2.50000000e-05     -7.25000000e-04      2.50000000e-04
171  3     -1.75000000e-04      2.50000000e-05     -7.25000000e-04      2.50000000e-04
172  3     -1.50000000e-04      2.50000000e-05     -7.25000000e-04      2.50000000e-04
173  3     -1.25000000e-04      2.50000000e-05     -7.25000000e-04      2.50000000e-04
174  3     -1.00000000e-04      2.50000000e-05     -7.25000000e-04      2.50000000e-04
175  3     -7.50000000e-05      2.50000000e-05     -7.25000000e-04      2.50000000e-04
176  3     -5.00000000e-05      2.50000000e-05     -7.25000000e-04      2.50000000e-04
177  3     -2.50000000e-05      2.50000000e-05     -7.25000000e-04      2.50000000e-04
178  3      0.00000000e+00      2.50000000e-05     -7.25000000e-04      2.50000000e-04
179  3      2.50000000e-05      2.50000000e-05     -7.25000000e-04      2.50000000e-04
180  3      5.00000000e-05      2.50000000e-05     -7.25000000e-04      2.50000000e-04
181  3      7.50000000e-05      2.50000000e-05     -7.25000000e-04      2.50000000e-04
182  3      1.00000000e-04      2.50000000e-05     -7.25000000e-04      2.50000000e-04
183  3      1.25000000e-04      2.50000000e-05     -7.25000000e-04      2.50000000e-04
184  3      1.50000000e-04      2.50000000e-05     -7.25000000e-04      2.50000000e-04
185  3      1.75000000e-04      2.50000000e-05     -7.25000000e-04      2.50000000e-04
186  3      2.00000000e-04      2.50000000e-05     -7.25000000e-04      2.50000000e-04
187  3      2.25000000e-04      2.50000000e-05     -7.25000000e-04      2.50000000e-04
188  3     -2.25000000e-04      5.00000000e-05     -7.25000000e-04      2.50000000e-04
189  3     -2.00000000e-04      5.00000000e-05     -7.25000000e-04      2.50000000e-04
190  3     -1.75000000e-04      5.00000000e-05     -7.25000000e-04      2.50000000e-04
191  3     -1.50000000e-04      5.00000000e-05     -7.25000000e-04      2.50000000e-04
192  3     -1.25000000e-04      5.00000000e-05     -7.25000000e-04      2.50000000e-04
193  3     -1.00000000e-04      5.00000000e-05     -7.25000000e-04      2.50000000e-04
194  3     -7.50000000e-05      5.00000000e-05     -7.25000000e-04      2.50000000e-04
195  3     -5.00000000e-05      5.00000000e-05     -7.25000000e-04      2.50000000e-04
196  3     -2.50000000e-05      5.00000000e-05     -7.25000000e-04      2.50000000e-04
197  3      0.00000000e+00      5.00000000e-05     -7.25000000e-04      2.50000000e-04
198  3      2.50000000e-05      5.00000000e-05     -7.25000000e-04      2.50000000e-04
199  3      5.00000000e-05      5.00000000e-05     -7.25000000e-04      2.50000000e-04
200  3      7.50000000e-05      5.00000000e-05     -7.25000000e-04      2.50000000e-04
201  3      1.00000000e-04      5.00000000e-05     -7.25000000e-04      2.50000000e-04
202  3      1.25000000e-04      5.00000000e-05     -7.25000000e-04      2.50000000e-04
203  3      1.50000000e-04      5.00000000e-05     -7.25000000e-04      2.50000000e-04
204  3      1.75000000e-04      5.00000000e-05     -7.25000000e-04      2.50000000e-04
205  3      2.00000000e-04      5.00000000e-05     -7.25000000e-04      2.50000000e-04
206  3      2.25000000e-04      5.00000000e-05     -7.25000000e-04      2.50000000e-04
207  3     -2.25000000e-04      7.50000000e-05     -7.25000000e-04      2.50000000e-04
208  3     -2.00000000e-04      7.50000000e-05     -7.25000000e-04      2.50000000e-04
209  3     -1.75000000e-04      7.50000000e-05     -7.25000000e-04      2.50000000e-04
210  3     -1.50000000e-04      7.50000000e-05     -7.25000000e-04      2.50000000e-04
211  3     -1.25000000e-04      7.50000000e-05     -7.25000000e-04      2.50000000e-04
212  3     -1.00000000e-04      7.50000000e-05     -7.25000000e-04      2.50000000e-04
213  3     -7.50000000e-05      7.50000000e-05     -7.25000000e-04      2.50000000e-04
214  3     -5.00000000e-05      7.50000000e-05     -7.25000000e-04      2.50000000e-04
215  3     -2.50000000e-05      7.50000000e-05     -7.25000000e-04      2.50000000e-04
216  3      0.00000000e+00      7.50000000e-05     -7.25000000e-04      2.50000000e-04
217  3      2.50000000e-05      7.50000000e-05     -7.25000000e-04      2.50000000e-04
218  3      5.00000000e-05      7.50000000e-05     -7.25000000e-04      2.50000000e-04
219  3      7.50000000e-05      7.50000000e-05     -7.25000000e-04      2.50000000e-04
220  3      1.00000000e-04      7.50000000e-05     -7.25000000e-04      2.50000000e-04
221  3      1.25000000e-04      7.50000000e-05     -7.25000000e-04      2.50000000e-04
222  3      1.50000000e-04      7.50000000e-05     -7.25000000e-04      2.50000000e-04
223  3      1.75000000e-04      7.50000000e-05     -7.25000000e-04      2.50000000e-04
224  3      2.00000000e-04      7.50000000e-05     -7.25000000e-04      2.50000000e-04
225  3      2.25000000e-04      7.50000000e-05     -7.25000000e-04      2.50000000e-04
226  3     -2.25000000e-04      1.00000000e-04     -7.25000000e-04      2.50000000e-04
227  3     -2.00000000e-04      1.00000000e-04     -7.25000000e-04      2.50000000e-04
228  3     -1.75000000e-04      1.00000000e-04     -7.25000000e-04      2.50000000e-04
229  3     -1.50000000e-04      1.00000000e-04     -7.25000000e-04      2.50000000e-04
230  3     -1.25000000e-04      1.00000000e-04     -7.25000000e-04      2.50000000e-04
231  3     -1.00000000e-04      1.00000000e-04     -7.25000000e-04      2.50000000e-04
232  3     -7.50000000e-05      1.00000000e-04     -7.25000000e-04      2.50000000e-04
233  3     -5.00000000e-05      1.00000000e-04     -7.25000000e-04      2.50000000e-04
234  3     -2.50000000e-05      1.00000000e-04     -7.25000000e-04      2.50000000e-04
235  3      0.00000000e+00      1.00000000e-04     -7.25000000e-04      2.50000000e-04
236  3      2.50000000e-05      1.00000000e-04     -7.25000000e-04      2.50000000e-04
237  3      5.00000000e-05      1.00000000e-04     -7.25000000e-04      2.50000000e-04
238  3      7.50000000e-05      1.00000000e-04     -7.25000000e-04      2.50000000e-04
239  3      1.00000000e-04      1.00000000e-04     -7.25000000e-04      2.50000000e-04
240  3      1.25000000e-04      1.00000000e-04     -7.25000000e-04      2.50000000e-04
241  3      1.50000000e-04      1.00000000e-04     -7.25000000e-04      2.50000000e-04
242  3      1.75000000e-04      1.00000000e-04     -7.25000000e-04      2.50000000e-04
243  3      2.00000000e-04      1.00000000e-04     -7.25000000e-04      2.50000000e-04
244  3      2.25000000e-04      1.00000000e-04     -7.25000000e-04      2.50000000e-04
245  3     -2.00000000e-04      1.25000000e-04     -7.25000000e-04      2.50000000e-04
246  3     -1.75000000e-04      1.25000000e-04     -7.25000000e-04      2.50000000e-04
247  3     -1.50000000e-04      1.25000000e-04     -7.25000000e-04      2.50000000e-04
248  3     -1.25000000e-04      1.25000000e-04     -7.25000000e-04      2.50000000e-04
249  3     -1.00000000e-04      1.25000000e-04     -7.25000000e-04      2.50000000e-04
250  3     -7.50000000e-05      1.25000000e-04     -7.25000000e-04      2.50000000e-04
251  3     -5.00000000e-05      1.25000000e-04     -7.25000000e-04      2.50000000e-04
252  3     -2.50000000e-05      1.25000000e-04     -7.25000000e-04      2.50000000e-04
253  3      0.00000000e+00      1.25000000e-04     -7.25000000e-04      2.50000000e-04
254  3      2.50000000e-05      1.25000000e-04     -7.25000000e-04      2.50000000e-04
255  3      5.00000000e-05      1.25000000e-04     -7.25000000e-04      2.50000000e-04
256  3      7.50000000e-05      1.25000000e-04     -7.25000000e-04      2.50000000e-04
257  3      1.00000000e-04      1.25000000e-04     -7.25000000e-04      2.50000000e-04
258  3      1.25000000e-04      1.25000000e-04     -7.25000000e-04      2.50000000e-04
259  3      1.50000000e-04      1.25000000e-04     -7.25000000e-04      2.50000000e-04
260  3      1.75000000e-04      1.25000000e-04     -7.25000000e-04      2.50000000e-04
261  3      2.00000000e-04      1.25000000e-04     -7.25000000e-04      2.50000000e-04
262  3     -1.75000000e-04      1.50000000e-04     -7.25000000e-04      2.50000000e-04
263  3     -1.50000000e-04      1.50000000e-04     -7.25000000e-04      2.50000000e-04
264  3     -1.25000000e-04      1.50000000e-04     -7.25000000e-04      2.50000000e-04
265  3     -1.00000000e-04      1.50000000e-04     -7.25000000e-04      2.50000000e-04
266  3     -7.50000000e-05      1.50000000e-04     -7.25000000e-04      2.50000000e-04
267  3     -5.00000000e-05      1.50000000e-04     -7.25000000e-04      2.50000000e-04
268  3     -2.50000000e-05      1.50000000e-04     -7.25000000e-04      2.50000000e-04
269  3      0.00000000e+00      1.50000000e-04     -7.25000000e-04      2.50000000e-04
270  3      2.50000000e-05      1.50000000e-04     -7.25000000e-04      2.50000000e-04
271  3      5.00000000e-05      1.50000000e-04     -7.25000000e-04      2.50000000e-04
272  3      7.50000000e-05      1.50000000e-04     -7.25000000e-04      2.50000000e-04
273  3      1.00000000e-04      1.50000000e-04     -7.25000000e-04      2.50000000e-04
274  3      1.25000000e-04      1.50000000e-04     -7.25000000e-04      2.50000000e-04
275  3      1.50000000e-04      1.50000000e-04     -7.25000000e-04      2.50000000e-04
276  3      1.75000000e-04      1.50000000e-04     -7.25000000e-04      2.50000000e-04
277  3     -1.75000000e-04      1.75000000e-04     -7.25000000e-04      2.50000000e-04
278  3     -1.50000000e-04      1.75000000e-04     -7.25000000e-04      2.50000000e-04
279  3     -1.25000000e-04      1.75000000e-04     -7.25000000e-04      2.50000000e-04
280  3     -1.00000000e-04      1.75000000e-04     -7.25000000e-04      2.50000000e-04
281  3     -7.50000000e-05      1.75000000e-04     -7.25000000e-04      2.50000000e-04
282  3     -5.00000000e-05      1.75000000e-04     -7.25000000e-04      2.50000000e-04
283  3     -2.50000000e-05      1.75000000e-04     -7.25000000e-04      2.50000000e-04
284  3      0.00000000e+00      1.75000000e-04     -7.25000000e-04      2.50000000e-04
285  3      2.50000000e-05      1.75000000e-04     -7.25000000e-04      2.50000000e-04
286  3      5.00000000e-05      1.75000000e-04     -7.25000000e-04      2.50000000e-04
287  3      7.50000000e-05      1.75000000e-04     -7.25000000e-04      2.50000000e-04
288  3      1.00000000e-04      1.75000000e-04     -7.25000000e-04      2.50000000e-04
289  3      1.25000000e-04      1.75000000e-04     -7.25000000e-04      2.50000000e-04
290  3      1.50000000e-04      1.75000000e-04     -7.25000000e-04      2.50000000e-04
291  3      1.75000000e-04      1.75000000e-04     -7.25000000e-04      2.50000000e-04
292  3     -1.50000000e-04      2.00000000e-04     -7.25000000e-04      2.50000000e-04
293  3     -1.25000000e-04      2.00000000e-04     -7.25000000e-04      2.50000000e-04
294  3     -1.00000000e-04      2.00000000e-04     -7.25000000e-04      2.50000000e-04
295  3     -7.50000000e-05      2.00000000e-04     -7.25000000e-04      2.50000000e-04
296  3     -5.00000000e-05      2.00000000e-04     -7.25000000e-04      2.50000000e-04
297  3     -2.50000000e-05      2.00000000e-04     -7.25000000e-04      2.50000000e-04
298  3      0.00000000e+00      2.00000000e-04     -7.25000000e-04      2.50000000e-04
299  3      2.50000000e-05      2.00000000e-04     -7.25000000e-04      2.50000000e-04
300  3      5.00000000e-05      2.00000000e-04     -7.25000000e-04      2.50000000e-04
301  3      7.50000000e-05      2.00000000e-04     -7.25000000e-04      2.50000000e-04
302  3      1.00000000e-04      2.00000000e-04     -7.25000000e-04      2.50000000e-04
303  3      1.25000000e-04      2.00000000e-04     -7.25000000e-04      2.50000000e-04
304  3     -1.00000000e-04      2.25000000e-04     -7.25000000e-04      2.50000000e-04
305  3     -7.50000000e-05      2.25000000e-04     -7.25000000e-04      2.50000000e-04
306  3     -5.00000000e-05      2.25000000e-04     -7.25000000e-04      2.50000000e-04
307  3     -2.50000000e-05      2.25000000e-04     -7.25000000e-04      2.50000000e-04
308  3      0.00000000e+00      2.25000000e-04     -7.25000000e-04      2.50000000e-04
309  3      2.50000000e-05      2.25000000e-04     -7.25000000e-04      2.50000000e-04
310  3      5.00000000e-05      2.25000000e-04     -7.25000000e-04      2.50000000e-04
311  3      7.50000000e-05      2.25000000e-04     -7.25000000e-04      2.50000000e-04
312  3      1.00000000e-04      2.25000000e-04     -7.25000000e-04      2.50000000e-04
313  3      0.00000000e+00      2.50000000e-04     -7.25000000e-04      2.50000000e-04
314  3      0.00000000e+00     -2.50000000e-04     -7.00000000e-04      2.50000000e-04
315  3     -1.00000000e-04     -2.25000000e-04     -7.00000000e-04      2.50000000e-04
316  3     -7.50000000e-05     -2.25000000e-04     -7.00000000e-04      2.50000000e-04
317  3     -5.00000000e-05     -2.25000000e-04     -7.00000000e-04      2.50000000e-04
318  3     -2.50000000e-05     -2.25000000e-04     -7.00000000e-04      2.50000000e-04
319  3      0.00000000e+00     -2.25000000e-04     -7.00000000e-04      2.50000000e-04
320  3      2.50000000e-05     -2.25000000e-04     -7.00000000e-04      2.50000000e-04
321  3      5.00000000e-05     -2.25000000e-04     -7.00000000e-04      2.50000000e-04
322  3      7.50000000e-05     -2.25000000e-04     -7.00000000e-04      2.50000000e-04
323  3      1.00000000e-04     -2.25000000e-04     -7.00000000e-04      2.50000000e-04
324  3     -1.50000000e-04     -2.00000000e-04     -7.00000000e-04      2.50000000e-04
325  3     -1.25000000e-04     -2.00000000e-04     -7.00000000e-04      2.50000000e-04
326  3     -1.00000000e-04     -2.00000000e-04     -7.00000000e-04      2.50000000e-04
327  3     -7.50000000e-05     -2.00000000e-04     -7.00000000e-04      2.50000000e-04
328  3     -5.00000000e-05     -2.00000000e-04     -7.00000000e-04      2.50000000e-04
329  3     -2.50000000e-05     -2.00000000e-04     -7.00000000e-04      2.50000000e-04
330  3      0.00000000e+00     -2.00000000e-04     -7.00000000e-04      2.50000000e-04
331  3      2.50000000e-05     -2.00000000e-04     -7.00000000e-04      2.50000000e-04
332  3      5.00000000e-05     -2.00000000e-04     -7.00000000e-04      2.50000000e-04
333  3      7.50000000e-05     -2.00000000e-04     -7.00000000e-04      2.50000000e-04
334  3      1.00000000e-04     -2.00000000e-04     -7.00000000e-04      2.50000000e-04
335  3      1.25000000e-04     -2.00000000e-04     -7.00000000e-04      2.50000000e-04
336  3     -1.75000000e-04     -1.75000000e-04     -7.00000000e-04      2.50000000e-04
337  3     -1.50000000e-04     -1.75000000e-04     -7.00000000e-04      2.50000000e-04
338  3     -1.25000000e-04     -1.75000000e-04     -7.00000000e-04      2.50000000e-04
339  3     -1.00000000e-04     -1.75000000e-04     -7.00000000e-04      2.50000000e-04
340  3     -7.50000000e-05     -1.75000000e-04     -7.00000000e-04      2.50000000e-04
341  3     -5.00000000e-05     -1.75000000e-04     -7.00000000e-04      2.50000000e-04
342  3     -2.50000000e-05     -1.75000000e-04     -7.00000000e-04      2.50000000e-04
343  3      0.00000000e+00     -1.75000000e-04     -7.00000000e-04      2.50000000e-04