ITEM: TIMESTEP
0
ITEM: NUMBER OF ATOMS
78
ITEM: ATOMS id type x y z radius
  1  1      0.00000000e+00     -9.75000000e-04      0.00000000e+00      2.50000000e-04
  2  1      0.00000000e+00     -9.50000000e-04      0.00000000e+00      2.50000000e-04
  3  1      0.00000000e+00     -9.25000000e-04      0.00000000e+00      2.50000000e-04
  4  1      0.00000000e+00     -9.00000000e-04      0.00000000e+00      2.50000000e-04
  5  1      0.00000000e+00     -8.75000000e-04      0.00000000e+00      2.50000000e-04
  6  1      0.00000000e+00     -8.50000000e-04      0.00000000e+00      2.50000000e-04
  7  1      0.00000000e+00     -8.25000000e-04      0.00000000e+00      2.50000000e-04
  8  1      0.00000000e+00     -8.00000000e-04      0.00000000e+00      2.50000000e-04
  9  1      0.00000000e+00     -7.75000000e-04      0.00000000e+00      2.50000000e-04
 10  1      0.00000000e+00     -7.50000000e-04      0.00000000e+00      2.50000000e-04
 11  1      0.00000000e+00     -7.25000000e-04      0.00000000e+00      2.50000000e-04
 12  1      0.00000000e+00     -7.00000000e-04      0.00000000e+00      2.50000000e-04
 13  1      0.00000000e+00     -6.75000000e-04      0.00000000e+00      2.50000000e-04
 14  1      0.00000000e+00     -6.50000000e-04      0.00000000e+00      2.50000000e-04
 15  1      0.00000000e+00     -6.25000000e-04      0.00000000e+00      2.50000000e-04
 16  1      0.00000000e+00     -6.00000000e-04      0.00000000e+00      2.50000000e-04
 17  1      0.00000000e+00     -5.75000000e-04      0.00000000e+00      2.50000000e-04
 18  1      0.00000000e+00     -5.50000000e-04      0.00000000e+00      2.50000000e-04
 19  1      0.00000000e+00     -5.25000000e-04      0.00000000e+00      2.50000000e-04
 20  1      0.00000000e+00     -5.00000000e-04      0.00000000e+00      2.50000000e-04
 21  1      0.00000000e+00     -4.75000000e-04      0.00000000e+00      2.50000000e-04
 22  1      0.00000000e+00     -4.50000000e-04      0.00000000e+00      2.50000000e-04
 23  1      0.00000000e+00     -4.25000000e-04      0.00000000e+00      2.50000000e-04
 24  1      0.00000000e+00     -4.00000000e-04      0.00000000e+00      2.50000000e-04
 25  1      0.00000000e+00     -3.75000000e-04      0.00000000e+00      2.50000000e-04
 26  1      0.00000000e+00     -3.50000000e-04      0.00000000e+00      2.50000000e-04
 27  1      0.00000000e+00     -3.25000000e-04      0.00000000e+00      2.50000000e-04
 28  1      0.00000000e+00     -3.00000000e-04      0.00000000e+00      2.50000000e-04
 29  1      0.00000000e+00     -2.75000000e-04      0.00000000e+00      2.50000000e-04
 30  1      0.00000000e+00     -2.50000000e-04      0.00000000e+00      2.50000000e-04
 31  1      0.00000000e+00     -2.25000000e-04      0.00000000e+00      2.50000000e-04
 32  1      0.00000000e+00     -2.00000000e-04      0.00000000e+00      2.50000000e-04
 33  1      0.00000000e+00     -1.75000000e-04      0.00000000e+00      2.50000000e-04
 34  1      0.00000000e+00     -1.50000000e-04      0.00000000e+00      2.50000000e-04
 35  1      0.00000000e+00     -1.25000000e-04      0.00000000e+00      2.50000000e-04
 36  1      0.00000000e+00     -1.00000000e-04      0.00000000e+00      2.50000000e-04
 37  1      0.00000000e+00     -7.50000000e-05      0.00000000e+00      2.50000000e-04
 38  1      0.00000000e+00     -5.00000000e-05      0.00000000e+00      2.50000000e-04
 39  1      0.00000000e+00     -2.50000000e-05      0.00000000e+00      2.50000000e-04
 40  1      0.00000000e+00      0.00000000e+00      0.00000000e+00      2.50000000e-04
 41  1      0.00000000e+00      2.50000000e-05      0.00000000e+00      2.50000000e-04
 42  1      0.00000000e+00      5.00000000e-05      0.00000000e+00      2.50000000e-04
 43  1      0.00000000e+00      7.50000000e-05      0.00000000e+00      2.50000000e-04
 44  1      0.00000000e+00      1.00000000e-04      0.00000000e+00      2.50000000e-04
 45  1      0.00000000e+00      1.25000000e-04      0.00000000e+00      2.50000000e-04
 46  1      0.00000000e+00      1.50000000e-04      0.00000000e+00      2.50000000e-04
 47  1      0.00000000e+00      1.75000000e-04      0.00000000e+00      2.50000000e-04
 48  1      0.00000000e+00      2.00000000e-04      0.00000000e+00      2.50000000e-04
 49  1      0.00000000e+00      2.25000000e-04      0.00000000e+00      2.50000000e-04
 50  1      0.00000000e+00      2.50000000e-04      0.00000000e+00      2.50000000e-04
 51  1      0.00000000e+00      2.75000000e-04      0.00000000e+00      2.50000000e-04
 52  1      0.00000000e+00      3.00000000e-04      0.00000000e+00      2.50000000e-04
 53  1      0.00000000e+00      3.25000000e-04      0.00000000e+00      2.50000000e-04
 54  1      0.00000000e+00      3.50000000e-04      0.00000000e+00      2.50000000e-04
 55  1      0.00000000e+00      3.75000000e-04      0.00000000e+00      2.50000000e-04
 56  1      0.00000000e+00      4.00000000e-04      0.00000000e+00      2.50000000e-04
 57  1      0.00000000e+00      4.25000000e-04      0.00000000e+00      2.50000000e-04
 58  1      0.00000000e+00      4.50000000e-04      0.00000000e+00      2.50000000e-04
 59  1      0.00000000e+00      4.75000000e-04      0.00000000e+00      2.50000000e-04
 60  1      0.00000000e+00      5.00000000e-04      0.00000000e+00      2.50000000e-04
 61  1      0.00000000e+00      5.25000000e-04      0.00000000e+00      2.50000000e-04
 62  1      0.00000000e+00      5.50000000e-04      0.00000000e+00      2.50000000e-04
 63  1      0.00000000e+00      5.75000000e-04      0.00000000e+00      2.50000000e-04
 64  1      0.00000000e+00      6.00000000e-04      0.00000000e+00      2.50000000e-04
 65  1      0.00000000e+00      6.25000000e-04      0.00000000e+00      2.50000000e-04
 66  1      0.00000000e+00      6.50000000e-04      0.00000000e+00      2.50000000e-04
 67  1      0.00000000e+00      6.75000000e-04      0.00000000e+00      2.50000000e-04
 68  1      0.00000000e+00      7.00000000e-04      0.00000000e+00      2.50000000e-04
 69  1      0.00000000e+00      7.25000000e-04      0.00000000e+00      2.50000000e-04
 70  1      0.00000000e+00      7.50000000e-04      0.00000000e+00      2.50000000e-04
 71  1      0.00000000e+00      7.75000000e-04      0.00000000e+00      2.50000000e-04
 72  1      0.00000000e+00      8.00000000e-04      0.00000000e+00      2.50000000e-04
 73  1      0.00000000e+00      8.25000000e-04      0.00000000e+00      2.50000000e-04
 74  1      0.00000000e+00      8.50000000e-04      0.00000000e+00      2.50000000e-04
 75  1      0.00000000e+00      8.75000000e-04      0.00000000e+00      2.50000000e-04
 76  1      0.00000000e+00      9.00000000e-04      0.00000000e+00      2.50000000e-04
 77  1      0.00000000e+00      9.25000000e-04      0.00000000e+00      2.50000000e-04
 78  1      0.00000000e+00      9.50000000e-04      0.00000000e+00      2.50000000e-04
