ITEM: TIMESTEP
0
ITEM: NUMBER OF ATOMS
143
ITEM: ATOMS id type x y z radius
  1  3      0.00000000e+00     -2.50000000e-04     -6.25000000e-04      2.50000000e-04
  2  3     -1.25000000e-04     -1.25000000e-04     -6.25000000e-04      2.50000000e-04
  3  3      0.00000000e+00     -1.25000000e-04     -6.25000000e-04      2.50000000e-04
  4  3      1.25000000e-04     -1.25000000e-04     -6.25000000e-04      2.50000000e-04
  5  3     -2.50000000e-04      0.00000000e+00     -6.25000000e-04      2.50000000e-04
  6  3     -1.25000000e-04      0.00000000e+00     -6.25000000e-04      2.50000000e-04
  7  3      0.00000000e+00      0.00000000e+00     -6.25000000e-04      2.50000000e-04
  8  3      1.25000000e-04      0.00000000e+00     -6.25000000e-04      2.50000000e-04
  9  3      2.50000000e-04      0.00000000e+00     -6.25000000e-04      2.50000000e-04
 10  3     -1.25000000e-04      1.25000000e-04     -6.25000000e-04      2.50000000e-04
 11  3      0.00000000e+00      1.25000000e-04     -6.25000000e-04      2.50000000e-04
 12  3      1.25000000e-04      1.25000000e-04     -6.25000000e-04      2.50000000e-04
 13  3      0.00000000e+00      2.50000000e-04     -6.25000000e-04      2.50000000e-04
 14  3      0.00000000e+00     -2.50000000e-04     -5.00000000e-04      2.50000000e-04
 15  3     -1.25000000e-04     -1.25000000e-04     -5.00000000e-04      2.50000000e-04
 16  3      0.00000000e+00     -1.25000000e-04     -5.00000000e-04      2.50000000e-04
 17  3      1.25000000e-04     -1.25000000e-04     -5.00000000e-04      2.50000000e-04
 18  3     -2.50000000e-04      0.00000000e+00     -5.00000000e-04      2.50000000e-04
 19  3     -1.25000000e-04      0.00000000e+00     -5.00000000e-04      2.50000000e-04
 20  3      0.00000000e+00      0.00000000e+00     -5.00000000e-04      2.50000000e-04
 21  3      1.25000000e-04      0.00000000e+00     -5.00000000e-04      2.50000000e-04
 22  3      2.50000000e-04      0.00000000e+00     -5.00000000e-04      2.50000000e-04
 23  3     -1.25000000e-04      1.25000000e-04     -5.00000000e-04      2.50000000e-04
 24  3      0.00000000e+00      1.25000000e-04     -5.00000000e-04      2.50000000e-04
 25  3      1.25000000e-04      1.25000000e-04     -5.00000000e-04      2.50000000e-04
 26  3      0.00000000e+00      2.50000000e-04     -5.00000000e-04      2.50000000e-04
 27  3      0.00000000e+00     -2.50000000e-04     -3.75000000e-04      2.50000000e-04
 28  3     -1.25000000e-04     -1.25000000e-04     -3.75000000e-04      2.50000000e-04
 29  3      0.00000000e+00     -1.25000000e-04     -3.75000000e-04      2.50000000e-04
 30  3      1.25000000e-04     -1.25000000e-04     -3.75000000e-04      2.50000000e-04
 31  3     -2.50000000e-04      0.00000000e+00     -3.75000000e-04      2.50000000e-04
 32  3     -1.25000000e-04      0.00000000e+00     -3.75000000e-04      2.50000000e-04
 33  3      0.00000000e+00      0.00000000e+00     -3.75000000e-04      2.50000000e-04
 34  3      1.25000000e-04      0.00000000e+00     -3.75000000e-04      2.50000000e-04
 35  3      2.50000000e-04      0.00000000e+00     -3.75000000e-04      2.50000000e-04
 36  3     -1.25000000e-04      1.25000000e-04     -3.75000000e-04      2.50000000e-04
 37  3      0.00000000e+00      1.25000000e-04     -3.75000000e-04      2.50000000e-04
 38  3      1.25000000e-04      1.25000000e-04     -3.75000000e-04      2.50000000e-04
 39  3      0.00000000e+00      2.50000000e-04     -3.75000000e-04      2.50000000e-04
 40  3      0.00000000e+00     -2.50000000e-04     -2.50000000e-04      2.50000000e-04
 41  3     -1.25000000e-04     -1.25000000e-04     -2.50000000e-04      2.50000000e-04
 42  3      0.00000000e+00     -1.25000000e-04     -2.50000000e-04      2.50000000e-04
 43  3      1.25000000e-04     -1.25000000e-04     -2.50000000e-04      2.50000000e-04
 44  3     -2.50000000e-04      0.00000000e+00     -2.50000000e-04      2.50000000e-04
 45  3     -1.25000000e-04      0.00000000e+00     -2.50000000e-04      2.50000000e-04
 46  3      0.00000000e+00      0.00000000e+00     -2.50000000e-04      2.50000000e-04
 47  3      1.25000000e-04      0.00000000e+00     -2.50000000e-04      2.50000000e-04
 48  3      2.50000000e-04      0.00000000e+00     -2.50000000e-04      2.50000000e-04
 49  3     -1.25000000e-04      1.25000000e-04     -2.50000000e-04      2.50000000e-04
 50  3      0.00000000e+00      1.25000000e-04     -2.50000000e-04      2.50000000e-04
 51  3      1.25000000e-04      1.25000000e-04     -2.50000000e-04      2.50000000e-04
 52  3      0.00000000e+00      2.50000000e-04     -2.50000000e-04      2.50000000e-04
 53  3      0.00000000e+00     -2.50000000e-04     -1.25000000e-04      2.50000000e-04
 54  3     -1.25000000e-04     -1.25000000e-04     -1.25000000e-04      2.50000000e-04
 55  3      0.00000000e+00     -1.25000000e-04     -1.25000000e-04      2.50000000e-04
 56  3      1.25000000e-04     -1.25000000e-04     -1.25000000e-04      2.50000000e-04
 57  3     -2.50000000e-04      0.00000000e+00     -1.25000000e-04      2.50000000e-04
 58  3     -1.25000000e-04      0.00000000e+00     -1.25000000e-04      2.50000000e-04
 59  3      0.00000000e+00      0.00000000e+00     -1.25000000e-04      2.50000000e-04
 60  3      1.25000000e-04      0.00000000e+00     -1.25000000e-04      2.50000000e-04
 61  3      2.50000000e-04      0.00000000e+00     -1.25000000e-04      2.50000000e-04
 62  3     -1.25000000e-04      1.25000000e-04     -1.25000000e-04      2.50000000e-04
 63  3      0.00000000e+00      1.25000000e-04     -1.25000000e-04      2.50000000e-04
 64  3      1.25000000e-04      1.25000000e-04     -1.25000000e-04      2.50000000e-04
 65  3      0.00000000e+00      2.50000000e-04     -1.25000000e-04      2.50000000e-04
 66  3      0.00000000e+00     -2.50000000e-04      0.00000000e+00      2.50000000e-04
 67  3     -1.25000000e-04     -1.25000000e-04      0.00000000e+00      2.50000000e-04
 68  3      0.00000000e+00     -1.25000000e-04      0.00000000e+00      2.50000000e-04
 69  3      1.25000000e-04     -1.25000000e-04      0.00000000e+00      2.50000000e-04
 70  3     -2.50000000e-04      0.00000000e+00      0.00000000e+00      2.50000000e-04
 71  3     -1.25000000e-04      0.00000000e+00      0.00000000e+00      2.50000000e-04
 72  3      0.00000000e+00      0.00000000e+00      0.00000000e+00      2.50000000e-04
 73  3      1.25000000e-04      0.00000000e+00      0.00000000e+00      2.50000000e-04
 74  3      2.50000000e-04      0.00000000e+00      0.00000000e+00      2.50000000e-04
 75  3     -1.25000000e-04      1.25000000e-04      0.00000000e+00      2.50000000e-04
 76  3      0.00000000e+00      1.25000000e-04      0.00000000e+00      2.50000000e-04
 77  3      1.25000000e-04      1.25000000e-04      0.00000000e+00      2.50000000e-04
 78  3      0.00000000e+00      2.50000000e-04      0.00000000e+00      2.50000000e-04
 79  3      0.00000000e+00     -2.50000000e-04      1.25000000e-04      2.50000000e-04
 80  3     -1.25000000e-04     -1.25000000e-04      1.25000000e-04      2.50000000e-04
 81  3      0.00000000e+00     -1.25000000e-04      1.25000000e-04      2.50000000e-04
 82  3      1.25000000e-04     -1.25000000e-04      1.25000000e-04      2.50000000e-04
 83  3     -2.50000000e-04      0.00000000e+00      1.25000000e-04      2.50000000e-04
 84  3     -1.25000000e-04      0.00000000e+00      1.25000000e-04      2.50000000e-04
 85  3      0.00000000e+00      0.00000000e+00      1.25000000e-04      2.50000000e-04
 86  3      1.25000000e-04      0.00000000e+00      1.25000000e-04      2.50000000e-04
 87  3      2.50000000e-04      0.00000000e+00      1.25000000e-04      2.50000000e-04
 88  3     -1.25000000e-04      1.25000000e-04      1.25000000e-04      2.50000000e-04
 89  3      0.00000000e+00      1.25000000e-04      1.25000000e-04      2.50000000e-04
 90  3      1.25000000e-04      1.25000000e-04      1.25000000e-04      2.50000000e-04
 91  3      0.00000000e+00      2.50000000e-04      1.25000000e-04      2.50000000e-04
 92  3      0.00000000e+00     -2.50000000e-04      2.50000000e-04      2.50000000e-04
 93  3     -1.25000000e-04     -1.25000000e-04      2.50000000e-04      2.50000000e-04
 94  3      0.00000000e+00     -1.25000000e-04      2.50000000e-04      2.50000000e-04
 95  3      1.25000000e-04     -1.25000000e-04      2.50000000e-04      2.50000000e-04
 96  3     -2.50000000e-04      0.00000000e+00      2.50000000e-04      2.50000000e-04
 97  3     -1.25000000e-04      0.00000000e+00      2.50000000e-04      2.50000000e-04
 98  3      0.00000000e+00      0.00000000e+00      2.50000000e-04      2.50000000e-04
 99  3      1.25000000e-04      0.00000000e+00      2.50000000e-04      2.50000000e-04
100  3      2.50000000e-04      0.00000000e+00      2.50000000e-04      2.50000000e-04
101  3     -1.25000000e-04      1.25000000e-04      2.50000000e-04      2.50000000e-04
102  3      0.00000000e+00      1.25000000e-04      2.50000000e-04      2.50000000e-04
103  3      1.25000000e-04      1.25000000e-04      2.50000000e-04      2.50000000e-04
104  3      0.00000000e+00      2.50000000e-04      2.50000000e-04      2.50000000e-04
105  3      0.00000000e+00     -2.50000000e-04      3.75000000e-04      2.50000000e-04
106  3     -1.25000000e-04     -1.25000000e-04      3.75000000e-04      2.50000000e-04
107  3      0.00000000e+00     -1.25000000e-04      3.75000000e-04      2.50000000e-04
108  3      1.25000000e-04     -1.25000000e-04      3.75000000e-04      2.50000000e-04
109  3     -2.50000000e-04      0.00000000e+00      3.75000000e-04      2.50000000e-04
110  3     -1.25000000e-04      0.00000000e+00      3.75000000e-04      2.50000000e-04
111  3      0.00000000e+00      0.00000000e+00      3.75000000e-04      2.50000000e-04
112  3      1.25000000e-04      0.00000000e+00      3.75000000e-04      2.50000000e-04
113  3      2.50000000e-04      0.00000000e+00      3.75000000e-04      2.50000000e-04
114  3     -1.25000000e-04      1.25000000e-04      3.75000000e-04      2.50000000e-04
115  3      0.00000000e+00      1.25000000e-04      3.75000000e-04      2.50000000e-04
116  3      1.25000000e-04      1.25000000e-04      3.75000000e-04      2.50000000e-04
117  3      0.00000000e+00      2.50000000e-04      3.75000000e-04      2.50000000e-04
118  3      0.00000000e+00     -2.50000000e-04      5.00000000e-04      2.50000000e-04
119  3     -1.25000000e-04     -1.25000000e-04      5.00000000e-04      2.50000000e-04
120  3      0.00000000e+00     -1.25000000e-04      5.00000000e-04      2.50000000e-04
121  3      1.25000000e-04     -1.25000000e-04      5.00000000e-04      2.50000000e-04
122  3     -2.50000000e-04      0.00000000e+00      5.00000000e-04      2.50000000e-04
123  3     -1.25000000e-04      0.00000000e+00      5.00000000e-04      2.50000000e-04
124  3      0.00000000e+00      0.00000000e+00      5.00000000e-04      2.50000000e-04
125  3      1.25000000e-04      0.00000000e+00      5.00000000e-04      2.50000000e-04
126  3      2.50000000e-04      0.00000000e+00      5.00000000e-04      2.50000000e-04
127  3     -1.25000000e-04      1.25000000e-04      5.00000000e-04      2.50000000e-04
128  3      0.00000000e+00      1.25000000e-04      5.00000000e-04      2.50000000e-04
129  3      1.25000000e-04      1.25000000e-04      5.00000000e-04      2.50000000e-04
130  3      0.00000000e+00      2.50000000e-04      5.00000000e-04      2.50000000e-04
131  3      0.00000000e+00     -2.50000000e-04      6.25000000e-04      2.50000000e-04
132  3     -1.25000000e-04     -1.25000000e-04      6.25000000e-04      2.50000000e-04
133  3      0.00000000e+00     -1.25000000e-04      6.25000000e-04      2.50000000e-04
134  3      1.25000000e-04     -1.25000000e-04      6.25000000e-04      2.50000000e-04
135  3     -2.50000000e-04      0.00000000e+00      6.25000000e-04      2.50000000e-04
136  3     -1.25000000e-04      0.00000000e+00      6.25000000e-04      2.50000000e-04
137  3      0.00000000e+00      0.00000000e+00      6.25000000e-04      2.50000000e-04
138  3      1.25000000e-04      0.00000000e+00      6.25000000e-04      2.50000000e-04
139  3      2.50000000e-04      0.00000000e+00      6.25000000e-04      2.50000000e-04
140  3     -1.25000000e-04      1.25000000e-04      6.25000000e-04      2.50000000e-04
141  3      0.00000000e+00      1.25000000e-04      6.25000000e-04      2.50000000e-04
142  3      1.25000000e-04      1.25000000e-04      6.25000000e-04      2.50000000e-04
143  3      0.00000000e+00      2.50000000e-04      6.25000000e-04      2.50000000e-04
