ITEM: TIMESTEP
0
ITEM: NUMBER OF ATOMS
20825
ITEM: ATOMS id type x y z radius
  1  4      0.00000000e+00      0.00000000e+00     -1.25000000e-03      2.50000000e-04
  2  4     -2.50000000e-05     -2.50000000e-05     -1.22500000e-03      2.50000000e-04
  3  4      0.00000000e+00     -2.50000000e-05     -1.22500000e-03      2.50000000e-04
  4  4      2.50000000e-05     -2.50000000e-05     -1.22500000e-03      2.50000000e-04
  5  4     -2.50000000e-05      0.00000000e+00     -1.22500000e-03      2.50000000e-04
  6  4      0.00000000e+00      0.00000000e+00     -1.22500000e-03      2.50000000e-04
  7  4      2.50000000e-05      0.00000000e+00     -1.22500000e-03      2.50000000e-04
  8  4     -2.50000000e-05      2.50000000e-05     -1.22500000e-03      2.50000000e-04
  9  4      0.00000000e+00      2.50000000e-05     -1.22500000e-03      2.50000000e-04
 10  4      2.50000000e-05      2.50000000e-05     -1.22500000e-03      2.50000000e-04
 11  4     -2.50000000e-05     -5.00000000e-05     -1.20000000e-03      2.50000000e-04
 12  4      0.00000000e+00     -5.00000000e-05     -1.20000000e-03      2.50000000e-04
 13  4      2.50000000e-05     -5.00000000e-05     -1.20000000e-03      2.50000000e-04
 14  4     -5.00000000e-05     -2.50000000e-05     -1.20000000e-03      2.50000000e-04
 15  4     -2.50000000e-05     -2.50000000e-05     -1.20000000e-03      2.50000000e-04
 16  4      0.00000000e+00     -2.50000000e-05     -1.20000000e-03      2.50000000e-04
 17  4      2.50000000e-05     -2.50000000e-05     -1.20000000e-03      2.50000000e-04
 18  4      5.00000000e-05     -2.50000000e-05     -1.20000000e-03      2.50000000e-04
 19  4     -5.00000000e-05      0.00000000e+00     -1.20000000e-03      2.50000000e-04
 20  4     -2.50000000e-05      0.00000000e+00     -1.20000000e-03      2.50000000e-04
 21  4      0.00000000e+00      0.00000000e+00     -1.20000000e-03      2.50000000e-04
 22  4      2.50000000e-05      0.00000000e+00     -1.20000000e-03      2.50000000e-04
 23  4      5.00000000e-05      0.00000000e+00     -1.20000000e-03      2.50000000e-04
 24  4     -5.00000000e-05      2.50000000e-05     -1.20000000e-03      2.50000000e-04
 25  4     -2.50000000e-05      2.50000000e-05     -1.20000000e-03      2.50000000e-04
 26  4      0.00000000e+00      2.50000000e-05     -1.20000000e-03      2.50000000e-04
 27  4      2.50000000e-05      2.50000000e-05     -1.20000000e-03      2.50000000e-04
 28  4      5.00000000e-05      2.50000000e-05     -1.20000000e-03      2.50000000e-04
 29  4     -2.50000000e-05      5.00000000e-05     -1.20000000e-03      2.50000000e-04
 30  4      0.00000000e+00      5.00000000e-05     -1.20000000e-03      2.50000000e-04
 31  4      2.50000000e-05      5.00000000e-05     -1.20000000e-03      2.50000000e-04
 32  4     -2.50000000e-05     -7.50000000e-05     -1.17500000e-03      2.50000000e-04
 33  4      0.00000000e+00     -7.50000000e-05     -1.17500000e-03      2.50000000e-04
 34  4      2.50000000e-05     -7.50000000e-05     -1.17500000e-03      2.50000000e-04
 35  4     -5.00000000e-05     -5.00000000e-05     -1.17500000e-03      2.50000000e-04
 36  4     -2.50000000e-05     -5.00000000e-05     -1.17500000e-03      2.50000000e-04
 37  4      0.00000000e+00     -5.00000000e-05     -1.17500000e-03      2.50000000e-04
 38  4      2.50000000e-05     -5.00000000e-05     -1.17500000e-03      2.50000000e-04
 39  4      5.00000000e-05     -5.00000000e-05     -1.17500000e-03      2.50000000e-04
 40  4     -7.50000000e-05     -2.50000000e-05     -1.17500000e-03      2.50000000e-04
 41  4     -5.00000000e-05     -2.50000000e-05     -1.17500000e-03      2.50000000e-04
 42  4     -2.50000000e-05     -2.50000000e-05     -1.17500000e-03      2.50000000e-04
 43  4      0.00000000e+00     -2.50000000e-05     -1.17500000e-03      2.50000000e-04
 44  4      2.50000000e-05     -2.50000000e-05     -1.17500000e-03      2.50000000e-04
 45  4      5.00000000e-05     -2.50000000e-05     -1.17500000e-03      2.50000000e-04
 46  4      7.50000000e-05     -2.50000000e-05     -1.17500000e-03      2.50000000e-04
 47  4     -7.50000000e-05      0.00000000e+00     -1.17500000e-03      2.50000000e-04
 48  4     -5.00000000e-05      0.00000000e+00     -1.17500000e-03      2.50000000e-04
 49  4     -2.50000000e-05      0.00000000e+00     -1.17500000e-03      2.50000000e-04
 50  4      0.00000000e+00      0.00000000e+00     -1.17500000e-03      2.50000000e-04
 51  4      2.50000000e-05      0.00000000e+00     -1.17500000e-03      2.50000000e-04
 52  4      5.00000000e-05      0.00000000e+00     -1.17500000e-03      2.50000000e-04
 53  4      7.50000000e-05      0.00000000e+00     -1.17500000e-03      2.50000000e-04
 54  4     -7.50000000e-05      2.50000000e-05     -1.17500000e-03      2.50000000e-04
 55  4     -5.00000000e-05      2.50000000e-05     -1.17500000e-03      2.50000000e-04
 56  4     -2.50000000e-05      2.50000000e-05     -1.17500000e-03      2.50000000e-04
 57  4      0.00000000e+00      2.50000000e-05     -1.17500000e-03      2.50000000e-04
 58  4      2.50000000e-05      2.50000000e-05     -1.17500000e-03      2.50000000e-04
 59  4      5.00000000e-05      2.50000000e-05     -1.17500000e-03      2.50000000e-04
 60  4      7.50000000e-05      2.50000000e-05     -1.17500000e-03      2.50000000e-04
 61  4     -5.00000000e-05      5.00000000e-05     -1.17500000e-03      2.50000000e-04
 62  4     -2.50000000e-05      5.00000000e-05     -1.17500000e-03      2.50000000e-04
 63  4      0.00000000e+00      5.00000000e-05     -1.17500000e-03      2.50000000e-04
 64  4      2.50000000e-05      5.00000000e-05     -1.17500000e-03      2.50000000e-04
 65  4      5.00000000e-05      5.00000000e-05     -1.17500000e-03      2.50000000e-04
 66  4     -2.50000000e-05      7.50000000e-05     -1.17500000e-03      2.50000000e-04
 67  4      0.00000000e+00      7.50000000e-05     -1.17500000e-03      2.50000000e-04
 68  4      2.50000000e-05      7.50000000e-05     -1.17500000e-03      2.50000000e-04
 69  4     -5.00000000e-05     -7.50000000e-05     -1.15000000e-03      2.50000000e-04
 70  4     -2.50000000e-05     -7.50000000e-05     -1.15000000e-03      2.50000000e-04
 71  4      0.00000000e+00     -7.50000000e-05     -1.15000000e-03      2.50000000e-04
 72  4      2.50000000e-05     -7.50000000e-05     -1.15000000e-03      2.50000000e-04
 73  4      5.00000000e-05     -7.50000000e-05     -1.15000000e-03      2.50000000e-04
 74  4     -7.50000000e-05     -5.00000000e-05     -1.15000000e-03      2.50000000e-04
 75  4     -5.00000000e-05     -5.00000000e-05     -1.15000000e-03      2.50000000e-04
 76  4     -2.50000000e-05     -5.00000000e-05     -1.15000000e-03      2.50000000e-04
 77  4      0.00000000e+00     -5.00000000e-05     -1.15000000e-03      2.50000000e-04
 78  4      2.50000000e-05     -5.00000000e-05     -1.15000000e-03      2.50000000e-04
 79  4      5.00000000e-05     -5.00000000e-05     -1.15000000e-03      2.50000000e-04
 80  4      7.50000000e-05     -5.00000000e-05     -1.15000000e-03      2.50000000e-04
 81  4     -7.50000000e-05     -2.50000000e-05     -1.15000000e-03      2.50000000e-04
 82  4     -5.00000000e-05     -2.50000000e-05     -1.15000000e-03      2.50000000e-04
 83  4     -2.50000000e-05     -2.50000000e-05     -1.15000000e-03      2.50000000e-04
 84  4      0.00000000e+00     -2.50000000e-05     -1.15000000e-03      2.50000000e-04
 85  4      2.50000000e-05     -2.50000000e-05     -1.15000000e-03      2.50000000e-04
 86  4      5.00000000e-05     -2.50000000e-05     -1.15000000e-03      2.50000000e-04
 87  4      7.50000000e-05     -2.50000000e-05     -1.15000000e-03      2.50000000e-04
 88  4     -7.50000000e-05      0.00000000e+00     -1.15000000e-03      2.50000000e-04
 89  4     -5.00000000e-05      0.00000000e+00     -1.15000000e-03      2.50000000e-04
 90  4     -2.50000000e-05      0.00000000e+00     -1.15000000e-03      2.50000000e-04
 91  4      0.00000000e+00      0.00000000e+00     -1.15000000e-03      2.50000000e-04
 92  4      2.50000000e-05      0.00000000e+00     -1.15000000e-03      2.50000000e-04
 93  4      5.00000000e-05      0.00000000e+00     -1.15000000e-03      2.50000000e-04
 94  4      7.50000000e-05      0.00000000e+00     -1.15000000e-03      2.50000000e-04
 95  4     -7.50000000e-05      2.50000000e-05     -1.15000000e-03      2.50000000e-04
 96  4     -5.00000000e-05      2.50000000e-05     -1.15000000e-03      2.50000000e-04
 97  4     -2.50000000e-05      2.50000000e-05     -1.15000000e-03      2.50000000e-04
 98  4      0.00000000e+00      2.50000000e-05     -1.15000000e-03      2.50000000e-04
 99  4      2.50000000e-05      2.50000000e-05     -1.15000000e-03      2.50000000e-04
100  4      5.00000000e-05      2.50000000e-05     -1.15000000e-03      2.50000000e-04
101  4      7.50000000e-05      2.50000000e-05     -1.15000000e-03      2.50000000e-04
102  4     -7.50000000e-05      5.00000000e-05     -1.15000000e-03      2.50000000e-04
103  4     -5.00000000e-05      5.00000000e-05     -1.15000000e-03      2.50000000e-04
104  4     -2.50000000e-05      5.00000000e-05     -1.15000000e-03      2.50000000e-04
105  4      0.00000000e+00      5.00000000e-05     -1.15000000e-03      2.50000000e-04
106  4      2.50000000e-05      5.00000000e-05     -1.15000000e-03      2.50000000e-04
107  4      5.00000000e-05      5.00000000e-05     -1.15000000e-03      2.50000000e-04
108  4      7.50000000e-05      5.00000000e-05     -1.15000000e-03      2.50000000e-04
109  4     -5.00000000e-05      7.50000000e-05     -1.15000000e-03      2.50000000e-04
110  4     -2.50000000e-05      7.50000000e-05     -1.15000000e-03      2.50000000e-04
111  4      0.00000000e+00      7.50000000e-05     -1.15000000e-03      2.50000000e-04
112  4      2.50000000e-05      7.50000000e-05     -1.15000000e-03      2.50000000e-04
113  4      5.00000000e-05      7.50000000e-05     -1.15000000e-03      2.50000000e-04
114  4     -2.50000000e-05     -1.00000000e-04     -1.12500000e-03      2.50000000e-04
115  4      0.00000000e+00     -1.00000000e-04     -1.12500000e-03      2.50000000e-04
116  4      2.50000000e-05     -1.00000000e-04     -1.12500000e-03      2.50000000e-04
117  4     -7.50000000e-05     -7.50000000e-05     -1.12500000e-03      2.50000000e-04
118  4     -5.00000000e-05     -7.50000000e-05     -1.12500000e-03      2.50000000e-04
119  4     -2.50000000e-05     -7.50000000e-05     -1.12500000e-03      2.50000000e-04
120  4      0.00000000e+00     -7.50000000e-05     -1.12500000e-03      2.50000000e-04
121  4      2.50000000e-05     -7.50000000e-05     -1.12500000e-03      2.50000000e-04
122  4      5.00000000e-05     -7.50000000e-05     -1.12500000e-03      2.50000000e-04
123  4      7.50000000e-05     -7.50000000e-05     -1.12500000e-03      2.50000000e-04
124  4     -7.50000000e-05     -5.00000000e-05     -1.12500000e-03      2.50000000e-04
125  4     -5.00000000e-05     -5.00000000e-05     -1.12500000e-03      2.50000000e-04
126  4     -2.50000000e-05     -5.00000000e-05     -1.12500000e-03      2.50000000e-04
127  4      0.00000000e+00     -5.00000000e-05     -1.12500000e-03      2.50000000e-04
128  4      2.50000000e-05     -5.00000000e-05     -1.12500000e-03      2.50000000e-04
129  4      5.00000000e-05     -5.00000000e-05     -1.12500000e-03      2.50000000e-04
130  4      7.50000000e-05     -5.00000000e-05     -1.12500000e-03      2.50000000e-04
131  4     -1.00000000e-04     -2.50000000e-05     -1.12500000e-03      2.50000000e-04
132  4     -7.50000000e-05     -2.50000000e-05     -1.12500000e-03      2.50000000e-04
133  4     -5.00000000e-05     -2.50000000e-05     -1.12500000e-03      2.50000000e-04
134  4     -2.50000000e-05     -2.50000000e-05     -1.12500000e-03      2.50000000e-04
135  4      0.00000000e+00     -2.50000000e-05     -1.12500000e-03      2.50000000e-04
136  4      2.50000000e-05     -2.50000000e-05     -1.12500000e-03      2.50000000e-04
137  4      5.00000000e-05     -2.50000000e-05     -1.12500000e-03      2.50000000e-04
138  4      7.50000000e-05     -2.50000000e-05     -1.12500000e-03      2.50000000e-04
139  4      1.00000000e-04     -2.50000000e-05     -1.12500000e-03      2.50000000e-04
140  4     -1.00000000e-04      0.00000000e+00     -1.12500000e-03      2.50000000e-04
141  4     -7.50000000e-05      0.00000000e+00     -1.12500000e-03      2.50000000e-04
142  4     -5.00000000e-05      0.00000000e+00     -1.12500000e-03      2.50000000e-04
143  4     -2.50000000e-05      0.00000000e+00     -1.12500000e-03      2.50000000e-04
144  4      0.00000000e+00      0.00000000e+00     -1.12500000e-03      2.50000000e-04
145  4      2.50000000e-05      0.00000000e+00     -1.12500000e-03      2.50000000e-04
146  4      5.00000000e-05      0.00000000e+00     -1.12500000e-03      2.50000000e-04
147  4      7.50000000e-05      0.00000000e+00     -1.12500000e-03      2.50000000e-04
148  4      1.00000000e-04      0.00000000e+00     -1.12500000e-03      2.50000000e-04
149  4     -1.00000000e-04      2.50000000e-05     -1.12500000e-03      2.50000000e-04
150  4     -7.50000000e-05      2.50000000e-05     -1.12500000e-03      2.50000000e-04
151  4     -5.00000000e-05      2.50000000e-05     -1.12500000e-03      2.50000000e-04
152  4     -2.50000000e-05      2.50000000e-05     -1.12500000e-03      2.50000000e-04
153  4      0.00000000e+00      2.50000000e-05     -1.12500000e-03      2.50000000e-04
154  4      2.50000000e-05      2.50000000e-05     -1.12500000e-03      2.50000000e-04
155  4      5.00000000e-05      2.50000000e-05     -1.12500000e-03      2.50000000e-04
156  4      7.50000000e-05      2.50000000e-05     -1.12500000e-03      2.50000000e-04
157  4      1.00000000e-04      2.50000000e-05     -1.12500000e-03      2.50000000e-04
158  4     -7.50000000e-05      5.00000000e-05     -1.12500000e-03      2.50000000e-04
159  4     -5.00000000e-05      5.00000000e-05     -1.12500000e-03      2.50000000e-04
160  4     -2.50000000e-05      5.00000000e-05     -1.12500000e-03      2.50000000e-04
161  4      0.00000000e+00      5.00000000e-05     -1.12500000e-03      2.50000000e-04
162  4      2.50000000e-05      5.00000000e-05     -1.12500000e-03      2.50000000e-04
163  4      5.00000000e-05      5.00000000e-05     -1.12500000e-03      2.50000000e-04
164  4      7.50000000e-05      5.00000000e-05     -1.12500000e-03      2.50000000e-04
165  4     -7.50000000e-05      7.50000000e-05     -1.12500000e-03      2.50000000e-04
166  4     -5.00000000e-05      7.50000000e-05     -1.12500000e-03      2.50000000e-04
167  4     -2.50000000e-05      7.50000000e-05     -1.12500000e-03      2.50000000e-04
168  4      0.00000000e+00      7.50000000e-05     -1.12500000e-03      2.50000000e-04
169  4      2.50000000e-05      7.50000000e-05     -1.12500000e-03      2.50000000e-04
170  4      5.00000000e-05      7.50000000e-05     -1.12500000e-03      2.50000000e-04
171  4      7.50000000e-05      7.50000000e-05     -1.12500000e-03      2.50000000e-04
172  4     -2.50000000e-05      1.00000000e-04     -1.12500000e-03      2.50000000e-04
173  4      0.00000000e+00      1.00000000e-04     -1.12500000e-03      2.50000000e-04
174  4      2.50000000e-05      1.00000000e-04     -1.12500000e-03      2.50000000e-04
175  4     -5.00000000e-05     -1.00000000e-04     -1.10000000e-03      2.50000000e-04
176  4     -2.50000000e-05     -1.00000000e-04     -1.10000000e-03      2.50000000e-04
177  4      0.00000000e+00     -1.00000000e-04     -1.10000000e-03      2.50000000e-04
178  4      2.50000000e-05     -1.00000000e-04     -1.10000000e-03      2.50000000e-04
179  4      5.00000000e-05     -1.00000000e-04     -1.10000000e-03      2.50000000e-04
180  4     -7.50000000e-05     -7.50000000e-05     -1.10000000e-03      2.50000000e-04
181  4     -5.00000000e-05     -7.50000000e-05     -1.10000000e-03      2.50000000e-04
182  4     -2.50000000e-05     -7.50000000e-05     -1.10000000e-03      2.50000000e-04
183  4      0.00000000e+00     -7.50000000e-05     -1.10000000e-03      2.50000000e-04
184  4      2.50000000e-05     -7.50000000e-05     -1.10000000e-03      2.50000000e-04
185  4      5.00000000e-05     -7.50000000e-05     -1.10000000e-03      2.50000000e-04
186  4      7.50000000e-05     -7.50000000e-05     -1.10000000e-03      2.50000000e-04
187  4     -1.00000000e-04     -5.00000000e-05     -1.10000000e-03      2.50000000e-04
188  4     -7.50000000e-05     -5.00000000e-05     -1.10000000e-03      2.50000000e-04
189  4     -5.00000000e-05     -5.00000000e-05     -1.10000000e-03      2.50000000e-04
190  4     -2.50000000e-05     -5.00000000e-05     -1.10000000e-03      2.50000000e-04
191  4      0.00000000e+00     -5.00000000e-05     -1.10000000e-03      2.50000000e-04
192  4      2.50000000e-05     -5.00000000e-05     -1.10000000e-03      2.50000000e-04
193  4      5.00000000e-05     -5.00000000e-05     -1.10000000e-03      2.50000000e-04
194  4      7.50000000e-05     -5.00000000e-05     -1.10000000e-03      2.50000000e-04
195  4      1.00000000e-04     -5.00000000e-05     -1.10000000e-03      2.50000000e-04
196  4     -1.00000000e-04     -2.50000000e-05     -1.10000000e-03      2.50000000e-04
197  4     -7.50000000e-05     -2.50000000e-05     -1.10000000e-03      2.50000000e-04
198  4     -5.00000000e-05     -2.50000000e-05     -1.10000000e-03      2.50000000e-04
199  4     -2.50000000e-05     -2.50000000e-05     -1.10000000e-03      2.50000000e-04
200  4      0.00000000e+00     -2.50000000e-05     -1.10000000e-03      2.50000000e-04
201  4      2.50000000e-05     -2.50000000e-05     -1.10000000e-03      2.50000000e-04
202  4      5.00000000e-05     -2.50000000e-05     -1.10000000e-03      2.50000000e-04
203  4      7.50000000e-05     -2.50000000e-05     -1.10000000e-03      2.50000000e-04
204  4      1.00000000e-04     -2.50000000e-05     -1.10000000e-03      2.50000000e-04
205  4     -1.00000000e-04      0.00000000e+00     -1.10000000e-03      2.50000000e-04
206  4     -7.50000000e-05      0.00000000e+00     -1.10000000e-03      2.50000000e-04
207  4     -5.00000000e-05      0.00000000e+00     -1.10000000e-03      2.50000000e-04
208  4     -2.50000000e-05      0.00000000e+00     -1.10000000e-03      2.50000000e-04
209  4      0.00000000e+00      0.00000000e+00     -1.10000000e-03      2.50000000e-04
210  4      2.50000000e-05      0.00000000e+00     -1.10000000e-03      2.50000000e-04
211  4      5.00000000e-05      0.00000000e+00     -1.10000000e-03      2.50000000e-04
212  4      7.50000000e-05      0.00000000e+00     -1.10000000e-03      2.50000000e-04
213  4      1.00000000e-04      0.00000000e+00     -1.10000000e-03      2.50000000e-04
214  4     -1.00000000e-04      2.50000000e-05     -1.10000000e-03      2.50000000e-04
215  4     -7.50000000e-05      2.50000000e-05     -1.10000000e-03      2.50000000e-04
216  4     -5.00000000e-05      2.50000000e-05     -1.10000000e-03      2.50000000e-04
217  4     -2.50000000e-05      2.50000000e-05     -1.10000000e-03      2.50000000e-04
218  4      0.00000000e+00      2.50000000e-05     -1.10000000e-03      2.50000000e-04
219  4      2.50000000e-05      2.50000000e-05     -1.10000000e-03      2.50000000e-04
220  4      5.00000000e-05      2.50000000e-05     -1.10000000e-03      2.50000000e-04
221  4      7.50000000e-05      2.50000000e-05     -1.10000000e-03      2.50000000e-04
222  4      1.00000000e-04      2.50000000e-05     -1.10000000e-03      2.50000000e-04
223  4     -1.00000000e-04      5.00000000e-05     -1.10000000e-03      2.50000000e-04
224  4     -7.50000000e-05      5.00000000e-05     -1.10000000e-03      2.50000000e-04
225  4     -5.00000000e-05      5.00000000e-05     -1.10000000e-03      2.50000000e-04
226  4     -2.50000000e-05      5.00000000e-05     -1.10000000e-03      2.50000000e-04
227  4      0.00000000e+00      5.00000000e-05     -1.10000000e-03      2.50000000e-04
228  4      2.50000000e-05      5.00000000e-05     -1.10000000e-03      2.50000000e-04
229  4      5.00000000e-05      5.00000000e-05     -1.10000000e-03      2.50000000e-04
230  4      7.50000000e-05      5.00000000e-05     -1.10000000e-03      2.50000000e-04
231  4      1.00000000e-04      5.00000000e-05     -1.10000000e-03      2.50000000e-04
232  4     -7.50000000e-05      7.50000000e-05     -1.10000000e-03      2.50000000e-04
233  4     -5.00000000e-05      7.50000000e-05     -1.10000000e-03      2.50000000e-04
234  4     -2.50000000e-05      7.50000000e-05     -1.10000000e-03      2.50000000e-04
235  4      0.00000000e+00      7.50000000e-05     -1.10000000e-03      2.50000000e-04
236  4      2.50000000e-05      7.50000000e-05     -1.10000000e-03      2.50000000e-04
237  4      5.00000000e-05      7.50000000e-05     -1.10000000e-03      2.50000000e-04
238  4      7.50000000e-05      7.50000000e-05     -1.10000000e-03      2.50000000e-04
239  4     -5.00000000e-05      1.00000000e-04     -1.10000000e-03      2.50000000e-04
240  4     -2.50000000e-05      1.00000000e-04     -1.10000000e-03      2.50000000e-04
241  4      0.00000000e+00      1.00000000e-04     -1.10000000e-03      2.50000000e-04
242  4      2.50000000e-05      1.00000000e-04     -1.10000000e-03      2.50000000e-04
243  4      5.00000000e-05      1.00000000e-04     -1.10000000e-03      2.50000000e-04
244  4     -2.50000000e-05     -1.25000000e-04     -1.07500000e-03      2.50000000e-04
245  4      0.00000000e+00     -1.25000000e-04     -1.07500000e-03      2.50000000e-04
246  4      2.50000000e-05     -1.25000000e-04     -1.07500000e-03      2.50000000e-04
247  4     -7.50000000e-05     -1.00000000e-04     -1.07500000e-03      2.50000000e-04
248  4     -5.00000000e-05     -1.00000000e-04     -1.07500000e-03      2.50000000e-04
249  4     -2.50000000e-05     -1.00000000e-04     -1.07500000e-03      2.50000000e-04
250  4      0.00000000e+00     -1.00000000e-04     -1.07500000e-03      2.50000000e-04
251  4      2.50000000e-05     -1.00000000e-04     -1.07500000e-03      2.50000000e-04
252  4      5.00000000e-05     -1.00000000e-04     -1.07500000e-03      2.50000000e-04
253  4      7.50000000e-05     -1.00000000e-04     -1.07500000e-03      2.50000000e-04
254  4     -1.00000000e-04     -7.50000000e-05     -1.07500000e-03      2.50000000e-04
255  4     -7.50000000e-05     -7.50000000e-05     -1.07500000e-03      2.50000000e-04
256  4     -5.00000000e-05     -7.50000000e-05     -1.07500000e-03      2.50000000e-04
257  4     -2.50000000e-05     -7.50000000e-05     -1.07500000e-03      2.50000000e-04
258  4      0.00000000e+00     -7.50000000e-05     -1.07500000e-03      2.50000000e-04
259  4      2.50000000e-05     -7.50000000e-05     -1.07500000e-03      2.50000000e-04
260  4      5.00000000e-05     -7.50000000e-05     -1.07500000e-03      2.50000000e-04
261  4      7.50000000e-05     -7.50000000e-05     -1.07500000e-03      2.50000000e-04
262  4      1.00000000e-04     -7.50000000e-05     -1.07500000e-03      2.50000000e-04
263  4     -1.00000000e-04     -5.00000000e-05     -1.07500000e-03      2.50000000e-04
264  4     -7.50000000e-05     -5.00000000e-05     -1.07500000e-03      2.50000000e-04
265  4     -5.00000000e-05     -5.00000000e-05     -1.07500000e-03      2.50000000e-04
266  4     -2.50000000e-05     -5.00000000e-05     -1.07500000e-03      2.50000000e-04
267  4      0.00000000e+00     -5.00000000e-05     -1.07500000e-03      2.50000000e-04
268  4      2.50000000e-05     -5.00000000e-05     -1.07500000e-03      2.50000000e-04
269  4      5.00000000e-05     -5.00000000e-05     -1.07500000e-03      2.50000000e-04
270  4      7.50000000e-05     -5.00000000e-05     -1.07500000e-03      2.50000000e-04
271  4      1.00000000e-04     -5.00000000e-05     -1.07500000e-03      2.50000000e-04
272  4     -1.25000000e-04     -2.50000000e-05     -1.07500000e-03      2.50000000e-04
273  4     -1.00000000e-04     -2.50000000e-05     -1.07500000e-03      2.50000000e-04
274  4     -7.50000000e-05     -2.50000000e-05     -1.07500000e-03      2.50000000e-04
275  4     -5.00000000e-05     -2.50000000e-05     -1.07500000e-03      2.50000000e-04
276  4     -2.50000000e-05     -2.50000000e-05     -1.07500000e-03      2.50000000e-04
277  4      0.00000000e+00     -2.50000000e-05     -1.07500000e-03      2.50000000e-04
278  4      2.50000000e-05     -2.50000000e-05     -1.07500000e-03      2.50000000e-04
279  4      5.00000000e-05     -2.50000000e-05     -1.07500000e-03      2.50000000e-04
280  4      7.50000000e-05     -2.50000000e-05     -1.07500000e-03      2.50000000e-04
281  4      1.00000000e-04     -2.50000000e-05     -1.07500000e-03      2.50000000e-04
282  4      1.25000000e-04     -2.50000000e-05     -1.07500000e-03      2.50000000e-04
283  4     -1.25000000e-04      0.00000000e+00     -1.07500000e-03      2.50000000e-04
284  4     -1.00000000e-04      0.00000000e+00     -1.07500000e-03      2.50000000e-04
285  4     -7.50000000e-05      0.00000000e+00     -1.07500000e-03      2.50000000e-04
286  4     -5.00000000e-05      0.00000000e+00     -1.07500000e-03      2.50000000e-04
287  4     -2.50000000e-05      0.00000000e+00     -1.07500000e-03      2.50000000e-04
288  4      0.00000000e+00      0.00000000e+00     -1.07500000e-03      2.50000000e-04
289  4      2.50000000e-05      0.00000000e+00     -1.07500000e-03      2.50000000e-04
290  4      5.00000000e-05      0.00000000e+00     -1.07500000e-03      2.50000000e-04
291  4      7.50000000e-05      0.00000000e+00     -1.07500000e-03      2.50000000e-04
292  4      1.00000000e-04      0.00000000e+00     -1.07500000e-03      2.50000000e-04
293  4      1.25000000e-04      0.00000000e+00     -1.07500000e-03      2.50000000e-04
294  4     -1.25000000e-04      2.50000000e-05     -1.07500000e-03      2.50000000e-04
295  4     -1.00000000e-04      2.50000000e-05     -1.07500000e-03      2.50000000e-04
296  4     -7.50000000e-05      2.50000000e-05     -1.07500000e-03      2.50000000e-04
297  4     -5.00000000e-05      2.50000000e-05     -1.07500000e-03      2.50000000e-04
298  4     -2.50000000e-05      2.50000000e-05     -1.07500000e-03      2.50000000e-04
299  4      0.00000000e+00      2.50000000e-05     -1.07500000e-03      2.50000000e-04
300  4      2.50000000e-05      2.50000000e-05     -1.07500000e-03      2.50000000e-04
301  4      5.00000000e-05      2.50000000e-05     -1.07500000e-03      2.50000000e-04
302  4      7.50000000e-05      2.50000000e-05     -1.07500000e-03      2.50000000e-04
303  4      1.00000000e-04      2.50000000e-05     -1.07500000e-03      2.50000000e-04
304  4      1.25000000e-04      2.50000000e-05     -1.07500000e-03      2.50000000e-04
305  4     -1.00000000e-04      5.00000000e-05     -1.07500000e-03      2.50000000e-04
306  4     -7.50000000e-05      5.00000000e-05     -1.07500000e-03      2.50000000e-04
307  4     -5.00000000e-05      5.00000000e-05     -1.07500000e-03      2.50000000e-04
308  4     -2.50000000e-05      5.00000000e-05     -1.07500000e-03      2.50000000e-04
309  4      0.00000000e+00      5.00000000e-05     -1.07500000e-03      2.50000000e-04
310  4      2.50000000e-05      5.00000000e-05     -1.07500000e-03      2.50000000e-04
311  4      5.00000000e-05      5.00000000e-05     -1.07500000e-03      2.50000000e-04
312  4      7.50000000e-05      5.00000000e-05     -1.07500000e-03      2.50000000e-04
313  4      1.00000000e-04      5.00000000e-05     -1.07500000e-03      2.50000000e-04
314  4     -1.00000000e-04      7.50000000e-05     -1.07500000e-03      2.50000000e-04
315  4     -7.50000000e-05      7.50000000e-05     -1.07500000e-03      2.50000000e-04
316  4     -5.00000000e-05      7.50000000e-05     -1.07500000e-03      2.50000000e-04
317  4     -2.50000000e-05      7.50000000e-05     -1.07500000e-03      2.50000000e-04
318  4      0.00000000e+00      7.50000000e-05     -1.07500000e-03      2.50000000e-04
319  4      2.50000000e-05      7.50000000e-05     -1.07500000e-03      2.50000000e-04
320  4      5.00000000e-05      7.50000000e-05     -1.07500000e-03      2.50000000e-04
321  4      7.50000000e-05      7.50000000e-05     -1.07500000e-03      2.50000000e-04
322  4      1.00000000e-04      7.50000000e-05     -1.07500000e-03      2.50000000e-04
323  4     -7.50000000e-05      1.00000000e-04     -1.07500000e-03      2.50000000e-04
324  4     -5.00000000e-05      1.00000000e-04     -1.07500000e-03      2.50000000e-04
325  4     -2.50000000e-05      1.00000000e-04     -1.07500000e-03      2.50000000e-04
326  4      0.00000000e+00      1.00000000e-04     -1.07500000e-03      2.50000000e-04
327  4      2.50000000e-05      1.00000000e-04     -1.07500000e-03      2.50000000e-04
328  4      5.00000000e-05      1.00000000e-04     -1.07500000e-03      2.50000000e-04
329  4      7.50000000e-05      1.00000000e-04     -1.07500000e-03      2.50000000e-04
330  4     -2.50000000e-05      1.25000000e-04     -1.07500000e-03      2.50000000e-04
331  4      0.00000000e+00      1.25000000e-04     -1.07500000e-03      2.50000000e-04
332  4      2.50000000e-05      1.25000000e-04     -1.07500000e-03      2.50000000e-04
333  4     -5.00000000e-05     -1.25000000e-04     -1.05000000e-03      2.50000000e-04
334  4     -2.50000000e-05     -1.25000000e-04     -1.05000000e-03      2.50000000e-04
335  4      0.00000000e+00     -1.25000000e-04     -1.05000000e-03      2.50000000e-04
336  4      2.50000000e-05     -1.25000000e-04     -1.05000000e-03      2.50000000e-04
337  4      5.00000000e-05     -1.25000000e-04     -1.05000000e-03      2.50000000e-04
338  4     -7.50000000e-05     -1.00000000e-04     -1.05000000e-03      2.50000000e-04
339  4     -5.00000000e-05     -1.00000000e-04     -1.05000000e-03      2.50000000e-04
340  4     -2.50000000e-05     -1.00000000e-04     -1.05000000e-03      2.50000000e-04
341  4      0.00000000e+00     -1.00000000e-04     -1.05000000e-03      2.50000000e-04
342  4      2.50000000e-05     -1.00000000e-04     -1.05000000e-03      2.50000000e-04
343  4      5.00000000e-05     -1.00000000e-04     -1.05000000e-03      2.50000000e-04